 +-------------------------------------------------+
 |                                                 |
 |      CCC   AA    SSS  TTTTT  EEEEE  PPPP        |
 |     C     A  A  S       T    E      P   P       |
 |     C     AAAA   SS     T    EEE    PPPP        |
 |     C     A  A     S    T    E      P           |
 |      CCC  A  A  SSS     T    EEEEE  P           |
 |                                                 |
 +-------------------------------------------------+
 |                                                 |
 | Welcome to Academic Release CASTEP version 21.11|          
 | Ab Initio Total Energy Program                  |
 |                                                 |
 | Authors:                                        |
 | M. Segall, M. Probert, C. Pickard, P. Hasnip,   |
 | S. Clark, K. Refson, J. R. Yates, M. Payne      |
 |                                                 |
 | Contributors:                                   |
 | P. Lindan, P. Haynes, J. White, V. Milman,      |
 | N. Govind, M. Gibson, P. Tulip, V. Cocula,      |
 | B. Montanari, D. Quigley, M. Glover,            |
 | L. Bernasconi, A. Perlov, M. Plummer,           |
 | E. McNellis, J. Meyer, J. Gale, D. Jochym       |
 | J. Aarons, B. Walker, R. Gillen, D. Jones       |
 | T. Green, I. J. Bush, C. J. Armstrong,          |
 | E. J. Higgins, E. L. Brown, M. S. McFly,        |
 | J. Wilkins, B-C. Shih, P. J. P. Byrne,          |
 | R. J. Maurer, J. C. Womack, J. Dziedzic,        |
 | A. Bartok-Partay, L. LeBlanc                    |
 |                                                 |
 | Copyright (c) 2000 - 2021                       |
 |                                                 |
 |     Distributed under license from Cambridge    |
 |     Enterprise for academic use only.           |
 |                                                 |
 | Please cite                                     |
 |                                                 |
 |     "First principles methods using CASTEP"     |
 |                                                 |
 |         Zeitschrift fuer Kristallographie       |
 |           220(5-6) pp. 567-570 (2005)           |
 |                                                 |
 | S. J. Clark, M. D. Segall, C. J. Pickard,       |
 | P. J. Hasnip, M. J. Probert, K. Refson,         |
 | M. C. Payne                                     |
 |                                                 |
 |       in all publications arising from          |
 |              your use of CASTEP                 |
 |                                                 |
 +-------------------------------------------------+
 |                                                 |
 |              http://www.castep.org              |
 |                                                 |
 +-------------------------------------------------+
 
 
 
 Compiled for linux_x86_64_cray-XT on Tue, 01 Mar 2022 09:19:15 +0000
 from code version 7d4405a8a+  HEAD  Sat Nov 27 13:38:33 2021 +0000
 Compiler: Cray Fortran 12.0.3; Optimisation: fast
 MATHLIBS: LibSci (LAPACK version 3.6.1)
 FFT Lib : fftw3 version commercial-fftw-3.3.8-sse2-avx-avx2-avx2_128
 Fundamental constants values: CODATA 2014
 
 Run started: Mon, 27 Jun 2022 07:22:36 -0100
 Warning in parameters_read: presetting of magnetic moments on atoms cannot be guaranteed when metals_method /= density mixing
 
 Atomic calculation performed for H: 1s1
 
 Converged in 41 iterations to an ae energy of -12.488 eV
 
   ============================================================                
   | Pseudopotential Report - Date of generation 27-06-2022   |                
   ------------------------------------------------------------                
   | Element: H Ionic charge:  1.00 Level of theory: PBE      |                
   | Atomic Solver: Koelling-Harmon                           |                
   |                                                          |                
   |               Reference Electronic Structure             |                
   |         Orbital         Occupation         Energy        |                
   |            1s              1.000           -0.239        |                
   |                                                          |                
   |                 Pseudopotential Definition               |                
   |        Beta     l      e      Rc     scheme   norm       |                
   |          1      0   -0.239   0.599     qc      0         |                
   |          2      0    0.250   0.599     qc      0         |                
   |         loc     1    0.000   0.599     pn      0         |                
   |                                                          |                
   | Augmentation charge Rinner = 0.421                       |                
   | No partial core correction                               |                
   ------------------------------------------------------------                
   | "1|0.6|13|15|17|10(qc=8)"                                |                
   ------------------------------------------------------------                
   |      Author: Chris J. Pickard, Cambridge University      |                
   ============================================================                
 
 Atomic calculation performed for Fe: 1s2 2s2 2p6 3s2 3p6 3d6 4s2
 
 Converged in 96 iterations to an ae energy of -34625.101 eV
 
   ============================================================                
   | Pseudopotential Report - Date of generation 27-06-2022   |                
   ------------------------------------------------------------                
   | Element: Fe Ionic charge:  8.00 Level of theory: PBE     |                
   | Atomic Solver: Koelling-Harmon                           |                
   |                                                          |                
   |               Reference Electronic Structure             |                
   |         Orbital         Occupation         Energy        |                
   |            3d              6.000           -0.276        |                
   |            4s              2.000           -0.194        |                
   |                                                          |                
   |                 Pseudopotential Definition               |                
   |        Beta     l      e      Rc     scheme   norm       |                
   |          1      0   -0.194   2.399     qc      0         |                
   |          2      0    0.250   2.399     qc      0         |                
   |          3      1    0.000   2.399     qc      0         |                
   |          4      1    0.250   2.399     qc      0         |                
   |          5      2   -0.276   1.997     qc      0         |                
   |          6      2    0.250   1.997     qc      0         |                
   |         loc     3    0.000   2.399     pn      0         |                
   |                                                          |                
   | Augmentation charge Rinner = 1.000                       |                
   | Partial core correction Rc = 1.000                       |                
   ------------------------------------------------------------                
   | "3|2.4|2.4|1.0|8|9|10|40:41:32U2U2(qc=5.5)"              |                
   ------------------------------------------------------------                
   |      Author: Chris J. Pickard, Cambridge University      |                
   ============================================================                
 
 Pseudo atomic calculation performed for H 1s1
 
 Converged in 16 iterations to a total energy of -12.4388 eV
 
 Pseudo atomic calculation performed for Fe 3d6 4s2
 
 Converged in 39 iterations to a total energy of -853.7730 eV
 Calculation parallelised over 128 processes.
 Data is distributed by G-vector(16-way) and k-point(8-way)

 ************************************ Title ************************************
 

 ***************************** General Parameters ******************************
  
 output verbosity                               : normal  (1)
 write checkpoint data to                       : neb-calc_1-11.check
 type of calculation                            : single point energy
 stress calculation                             : on
 density difference calculation                 : off
 electron localisation func (ELF) calculation   : off
 Hirshfeld analysis                             : off
 polarisation (Berry phase) analysis            : off
 molecular orbital projected DOS                : off
 deltaSCF calculation                           : off
 unlimited duration calculation
 timing information                             : on
 memory usage estimate                          : on
 write extra output files                       : on
 write final potential to formatted file        : off
 write final density to formatted file          : off
 write BibTeX reference list                    : on
 write OTFG pseudopotential files               : on
 write electrostatic potential file             : on
 write bands file                               : on
 checkpoint writing                             : both castep_bin and check files
  
 output         length unit                     : A
 output           mass unit                     : amu
 output           time unit                     : ps
 output         charge unit                     : e
 output           spin unit                     : hbar/2
 output         energy unit                     : eV
 output          force unit                     : eV/A
 output       velocity unit                     : A/ps
 output       pressure unit                     : GPa
 output     inv_length unit                     : 1/A
 output      frequency unit                     : cm-1
 output force constant unit                     : eV/A**2
 output         volume unit                     : A**3
 output   IR intensity unit                     : (D/A)**2/amu
 output         dipole unit                     : D
 output         efield unit                     : eV/A/e
 output        entropy unit                     : J/mol/K
 output    efield chi2 unit                     : pm/V
  
 wavefunctions paging                           : none
 random number generator seed                   : randomised (72236437)
 data distribution                              : optimal for this architecture
 optimization strategy                          : balance speed and memory

 *********************** Exchange-Correlation Parameters ***********************
  
 using functional                               : Perdew Burke Ernzerhof
 relativistic treatment                         : Koelling-Harmon
 DFT+D: Semi-empirical dispersion correction    : off

 ************************* Pseudopotential Parameters **************************
  
 pseudopotential representation                 : reciprocal space
 <beta|phi> representation                      : reciprocal space
 spin-orbit coupling                            : off

 **************************** Basis Set Parameters *****************************
  
 plane wave basis set cut-off                   :   400.0000   eV
 size of standard grid                          :     1.7500
 size of   fine   gmax                          :    17.9311   1/A
 finite basis set correction                    : automatic
 number of sample energies                      :          3
           sample  spacing                      :     5.0000   eV

 **************************** Electronic Parameters ****************************
  
 number of  electrons                           :  398.0    
 net charge of system                           :  0.000    
 net spin   of system                           :  120.0    
 number of  up  spins                           :  259.0    
 number of down spins                           :  139.0    
 treating system as spin-polarized
 number of bands                                :       1036
 electron temperature                           :     0.0000   K

 ********************* Electronic Minimization Parameters **********************
  
 Method: Treating system as metallic with ensemble DFT treatment of electrons,
         and number of  SD  steps               :          1
         and number of  CG  steps               :          4
  
 total energy / atom convergence tol.           : 0.1000E-06   eV
 max force / atom convergence tol.              : ignored
 convergence tolerance window                   :          3   cycles
 max. number of SCF cycles                      :        200
 number of fixed-spin iterations                :         10
 smearing scheme                                : Gaussian
 smearing width                                 : 0.2000       eV
 Fermi energy convergence tolerance             : 0.2721E-13   eV
 number of occupancy cycles                     :          6
 periodic dipole correction                     : NONE

 *********************** Population Analysis Parameters ************************
  
 Population analysis with cutoff                :  3.000       A
 Population analysis output                     : summary and pdos components

 *******************************************************************************
  
 
                           -------------------------------
                                      Unit Cell
                           -------------------------------
        Real Lattice(A)                      Reciprocal Lattice(1/A)
     8.0127110     0.0000000     0.0000000        0.784152244   0.000000000   0.000000000
     0.0000000     8.4987630     0.0000000        0.000000000   0.739305862   0.000000000
     0.0000000     0.0000000    18.0000000        0.000000000   0.000000000   0.349065850
 
                       Lattice parameters(A)       Cell Angles
                    a =      8.012711          alpha =   90.000000
                    b =      8.498763          beta  =   90.000000
                    c =     18.000000          gamma =   90.000000
 
                       Current cell volume =          1225.766372       A**3
                                   density =             2.198356   AMU/A**3
                                           =             3.650456     g/cm^3
 
                           -------------------------------
                                     Cell Contents
                           -------------------------------
                         Total number of ions in cell =   62
                      Total number of species in cell =    2
                        Max number of any one species =   48
 
            xxxxxxxxxxxxxxxxxxxxxxxxxxxxxxxxxxxxxxxxxxxxxxxxxxxxxxxxxxxx
            x  Element    Atom        Fractional coordinates of atoms  x
            x            Number           u          v          w      x
            x----------------------------------------------------------x
            x  H            1         0.330229   0.412722   0.232253   x 
            x  H            2         0.457400   0.590270   0.228444   x 
            x  H            3         0.659453   0.552054   0.339221   x 
            x  H            4         0.148338   0.318060   0.212029   x 
            x  H            5         0.699946   0.410226   0.223222   x 
            x  H            6         0.203283   0.747436   0.227332   x 
            x  H            7         0.968186   0.580315   0.220411   x 
            x  H            8         0.697710   0.749821   0.223486   x 
            x  H            9         0.451523   0.906329   0.229124   x 
            x  H           10         0.211499   0.072894   0.228930   x 
            x  H           11         0.952353   0.909674   0.226368   x 
            x  H           12         0.700262   0.074216   0.228903   x 
            x  H           13         0.467461   0.236028   0.231997   x 
            x  H           14         0.935805   0.243196   0.225678   x 
            x  Fe           1         0.780356   0.579260   0.266651   x 
            x  Fe           2         0.014105   0.573786   0.388762   x 
            x  Fe           3         0.021378   0.743540   0.277459   x 
            x  Fe           4         0.771209   0.908258   0.278134   x 
            x  Fe           5         0.765241   0.739666   0.389711   x 
            x  Fe           6         0.013614   0.910353   0.389705   x 
            x  Fe           7         0.018820   0.076043   0.277426   x 
            x  Fe           8         0.765597   0.243357   0.278556   x 
            x  Fe           9         0.764785   0.076100   0.390346   x 
            x  Fe          10         0.014602   0.241759   0.389328   x 
            x  Fe          11         0.020662   0.408784   0.274856   x 
            x  Fe          12         0.765538   0.407936   0.390232   x 
            x  Fe          13         0.270646   0.581719   0.279751   x 
            x  Fe          14         0.502561   0.577214   0.396124   x 
            x  Fe          15         0.522820   0.745593   0.280388   x 
            x  Fe          16         0.270115   0.908872   0.280024   x 
            x  Fe          17         0.261621   0.743901   0.391335   x 
            x  Fe          18         0.515326   0.908595   0.392048   x 
            x  Fe          19         0.520216   0.070417   0.281081   x 
            x  Fe          20         0.271068   0.242401   0.275775   x 
            x  Fe          21         0.264684   0.075746   0.390009   x 
            x  Fe          22         0.514082   0.242096   0.390816   x 
            x  Fe          23         0.520082   0.417161   0.277585   x 
            x  Fe          24         0.262474   0.408123   0.390128   x 
            x  Fe          25         0.761940   0.574044   0.503757   x 
            x  Fe          26         0.013618   0.572194   0.614438   x 
            x  Fe          27         0.011780   0.740480   0.502548   x 
            x  Fe          28         0.762567   0.907978   0.503094   x 
            x  Fe          29         0.763505   0.738429   0.615184   x 
            x  Fe          30         0.013491   0.905318   0.614433   x 
            x  Fe          31         0.011916   0.074292   0.502801   x 
            x  Fe          32         0.762473   0.240702   0.503213   x 
            x  Fe          33         0.763513   0.072195   0.615039   x 
            x  Fe          34         0.013491   0.239069   0.614435   x 
            x  Fe          35         0.011835   0.407868   0.502539   x 
            x  Fe          36         0.763503   0.405964   0.615186   x 
            x  Fe          37         0.260942   0.574149   0.503578   x 
            x  Fe          38         0.513228   0.572198   0.615233   x 
            x  Fe          39         0.511918   0.741798   0.505058   x 
            x  Fe          40         0.261634   0.908733   0.503544   x 
            x  Fe          41         0.263359   0.738784   0.614242   x 
            x  Fe          42         0.513385   0.905371   0.614898   x 
            x  Fe          43         0.512329   0.074808   0.503781   x 
            x  Fe          44         0.261429   0.240182   0.502951   x 
            x  Fe          45         0.263377   0.072195   0.614465   x 
            x  Fe          46         0.513385   0.239017   0.614897   x 
            x  Fe          47         0.511799   0.406588   0.504231   x 
            x  Fe          48         0.263361   0.405609   0.614243   x 
            xxxxxxxxxxxxxxxxxxxxxxxxxxxxxxxxxxxxxxxxxxxxxxxxxxxxxxxxxxxx
 
 
                         No user defined ionic velocities
 
                           -------------------------------
                                   Details of Species
                           -------------------------------
 
                               Mass of species in AMU
                                    H    1.0079400
                                    Fe   55.8450000
 
                          Electric Quadrupole Moment (Barn)
                                    H    0.0028600 Isotope  2
                                    Fe    0.1600000 Isotope 57
         xxxxxxxxxxxxxxxxxxxxxxxxxxxxxxxxxxxxxxxxxxxxxxxxxxxxxxxxxxxxxxxxxxxxxx
         |  Element    Atom         Initial            Initial magnetic       |
         |            Number    spin polarization        moment (uB)     Fix? |
         |--------------------------------------------------------------------|
         | H              1         0.000000              0.000       F       |
         | H              2         0.000000              0.000       F       |
         | H              3         0.000000              0.000       F       |
         | H              4         0.000000              0.000       F       |
         | H              5         0.000000              0.000       F       |
         | H              6         0.000000              0.000       F       |
         | H              7         0.000000              0.000       F       |
         | H              8         0.000000              0.000       F       |
         | H              9         0.000000              0.000       F       |
         | H             10         0.000000              0.000       F       |
         | H             11         0.000000              0.000       F       |
         | H             12         0.000000              0.000       F       |
         | H             13         0.000000              0.000       F       |
         | H             14         0.000000              0.000       F       |
         | Fe             1         0.312500              2.500       F       |
         | Fe             2         0.312500              2.500       F       |
         | Fe             3         0.312500              2.500       F       |
         | Fe             4         0.312500              2.500       F       |
         | Fe             5         0.312500              2.500       F       |
         | Fe             6         0.312500              2.500       F       |
         | Fe             7         0.312500              2.500       F       |
         | Fe             8         0.312500              2.500       F       |
         | Fe             9         0.312500              2.500       F       |
         | Fe            10         0.312500              2.500       F       |
         | Fe            11         0.312500              2.500       F       |
         | Fe            12         0.312500              2.500       F       |
         | Fe            13         0.312500              2.500       F       |
         | Fe            14         0.312500              2.500       F       |
         | Fe            15         0.312500              2.500       F       |
         | Fe            16         0.312500              2.500       F       |
         | Fe            17         0.312500              2.500       F       |
         | Fe            18         0.312500              2.500       F       |
         | Fe            19         0.312500              2.500       F       |
         | Fe            20         0.312500              2.500       F       |
         | Fe            21         0.312500              2.500       F       |
         | Fe            22         0.312500              2.500       F       |
         | Fe            23         0.312500              2.500       F       |
         | Fe            24         0.312500              2.500       F       |
         | Fe            25         0.312500              2.500       F       |
         | Fe            26         0.312500              2.500       F       |
         | Fe            27         0.312500              2.500       F       |
         | Fe            28         0.312500              2.500       F       |
         | Fe            29         0.312500              2.500       F       |
         | Fe            30         0.312500              2.500       F       |
         | Fe            31         0.312500              2.500       F       |
         | Fe            32         0.312500              2.500       F       |
         | Fe            33         0.312500              2.500       F       |
         | Fe            34         0.312500              2.500       F       |
         | Fe            35         0.312500              2.500       F       |
         | Fe            36         0.312500              2.500       F       |
         | Fe            37         0.312500              2.500       F       |
         | Fe            38         0.312500              2.500       F       |
         | Fe            39         0.312500              2.500       F       |
         | Fe            40         0.312500              2.500       F       |
         | Fe            41         0.312500              2.500       F       |
         | Fe            42         0.312500              2.500       F       |
         | Fe            43         0.312500              2.500       F       |
         | Fe            44         0.312500              2.500       F       |
         | Fe            45         0.312500              2.500       F       |
         | Fe            46         0.312500              2.500       F       |
         | Fe            47         0.312500              2.500       F       |
         | Fe            48         0.312500              2.500       F       |
         xxxxxxxxxxxxxxxxxxxxxxxxxxxxxxxxxxxxxxxxxxxxxxxxxxxxxxxxxxxxxxxxxxxxxx
 
 
                          Files used for pseudopotentials:
                                    H 1|0.6|13|15|17|10(qc=8)
                                    Fe 3|2.4|2.4|1.0|8|9|10|40:41:32U2U2(qc=5.5)
 
                           -------------------------------
                              k-Points For BZ Sampling
                           -------------------------------
                       MP grid size for SCF calculation is  4  4  1
                            with an offset of   0.000  0.000  0.000
                       Number of kpoints used =   8
 
                           -------------------------------
                               Symmetry and Constraints
                           -------------------------------
 
                      Maximum deviation from symmetry =  0.00000         ANG
 
                      Number of symmetry operations   = 1
                      Number of ionic constraints     = 3
                      Point group of crystal =     1: C1, 1, 1
                      Space group of crystal =     1: P1, P 1
 
             Set iprint > 1 for details on symmetry rotations/translations
 
                         Centre of mass is constrained
             Set iprint > 1 for details of linear ionic constraints
 
                         Number of cell constraints= 0
                         Cell constraints are:  1 2 3 4 5 6
 
                         External pressure/stress (GPa)
                          0.00000   0.00000   0.00000
                                    0.00000   0.00000
                                              0.00000
  
+---------------- MEMORY AND SCRATCH DISK ESTIMATES PER PROCESS --------------+
|                                                     Memory          Disk    |
| Baseline code, static data and system overhead      771.0 MB         0.0 MB |
| BLAS internal memory storage                          0.0 MB         0.0 MB |
| Model and support data                              262.5 MB        43.6 MB |
| Electronic energy minimisation requirements         456.9 MB         0.0 MB |
| Force calculation requirements                        3.7 MB         0.0 MB |
| Stress calculation requirements                       3.7 MB         0.0 MB |
|                                               ----------------------------- |
| Approx. total storage required per process         1490.3 MB        43.6 MB |
|                                                                             |
| Requirements will fluctuate during execution and may exceed these estimates |
+-----------------------------------------------------------------------------+
Calculating finite basis set correction with  3 cut-off energies.
Calculating total energy with cut-off of  390.000 eV.
Calculating approximate eigenstates for fixed initial Hamiltonian
Cut-off for approx. calculation is  159.419 eV
Improving approx. states at cut-off of  217.691 eV
Resetting cut-off to  389.869 eV
Improving states further at cut-off of  389.869 eV
------------------------------------------------------------------------ <-- SCF
SCF loop      Energy           Fermi           Energy gain       Timer   <-- SCF
                               energy          per atom          (sec)   <-- SCF
------------------------------------------------------------------------ <-- SCF
Initial   3.22894183E+004 -6.22823812E+001                       238.49  <-- SCF
      1  -4.11512394E+004 -1.02413703E+001   1.18452674E+003    1251.96  <-- SCF
      2  -4.15499768E+004 -3.63514835E+000   6.43124805E+000    2170.53  <-- SCF
      3  -4.16127983E+004 -1.20899299E+000   1.01325044E+000    3190.87  <-- SCF
      4  -4.16252449E+004 -2.12900721E-001   2.00750725E-001    4205.86  <-- SCF
      5  -4.16272052E+004  1.21782101E-001   3.16185584E-002    5217.22  <-- SCF
      6  -4.16274506E+004  2.20212704E-001   3.95745501E-003    6123.29  <-- SCF
      7  -4.16274534E+004  2.22000824E-001   4.51369290E-005    7134.48  <-- SCF
      8  -4.16274541E+004  2.21956324E-001   1.11123289E-005    8235.32  <-- SCF
      9  -4.16274541E+004  2.21620147E-001   1.26846992E-006    9351.25  <-- SCF
     10  -4.16277063E+004  1.57484339E-001   4.06651758E-003    9964.06  <-- SCF
     11  -4.16277449E+004  1.44959079E-001   6.23674605E-004   10831.76  <-- SCF
     12  -4.16277498E+004  1.41297822E-001   7.91393251E-005   11852.22  <-- SCF
     13  -4.16277507E+004  1.39345141E-001   1.38556013E-005   12886.56  <-- SCF
     14  -4.16277507E+004  1.39117195E-001   1.92163986E-007   13570.10  <-- SCF
     15  -4.16277507E+004  1.39117195E-001   0.00000000E+000   14137.73  <-- SCF
     16  -4.16277507E+004  1.39117195E-001   5.98756728E-013   14701.19  <-- SCF
------------------------------------------------------------------------ <-- SCF
 
Integrated Spin Density     =     113.617     hbar/2                        
Integrated |Spin Density|   =     118.862     hbar/2                        
 
Final energy, E             =  -41626.77050862     eV
Final free energy (E-TS)    =  -41627.75070483     eV
(energies not corrected for finite basis set)
 
NB est. 0K energy (E-0.5TS)      =  -41627.26060672     eV
 
Calculating total energy with cut-off of  395.000 eV.
------------------------------------------------------------------------ <-- SCF
SCF loop      Energy           Fermi           Energy gain       Timer   <-- SCF
                               energy          per atom          (sec)   <-- SCF
------------------------------------------------------------------------ <-- SCF
Initial  -4.16271964E+004  1.42509051E-001                     14742.32  <-- SCF
      1  -4.16278362E+004  1.39220467E-001   1.03193332E-002   15193.47  <-- SCF
      2  -4.16278366E+004  1.38930917E-001   5.74474668E-006   15977.99  <-- SCF
      3  -4.16278366E+004  1.38930917E-001   0.00000000E+000   16566.13  <-- SCF
      4  -4.16278366E+004  1.38930917E-001   0.00000000E+000   17155.07  <-- SCF
------------------------------------------------------------------------ <-- SCF
 
Integrated Spin Density     =     113.588     hbar/2                        
Integrated |Spin Density|   =     118.831     hbar/2                        
 
Final energy, E             =  -41626.85549062     eV
Final free energy (E-TS)    =  -41627.83655701     eV
(energies not corrected for finite basis set)
 
NB est. 0K energy (E-0.5TS)      =  -41627.34602382     eV
 
Calculating total energy with cut-off of  400.000 eV.
------------------------------------------------------------------------ <-- SCF
SCF loop      Energy           Fermi           Energy gain       Timer   <-- SCF
                               energy          per atom          (sec)   <-- SCF
------------------------------------------------------------------------ <-- SCF
Initial  -4.16273621E+004  1.38414137E-001                     17197.60  <-- SCF
      1  -4.16279065E+004  1.39073585E-001   8.78057904E-003   17633.20  <-- SCF
      2  -4.16279069E+004  1.38825766E-001   5.10759308E-006   18344.07  <-- SCF
      3  -4.16279069E+004  1.38825766E-001   5.98756728E-012   18934.30  <-- SCF
      4  -4.16279069E+004  1.38825766E-001   0.00000000E+000   19526.21  <-- SCF
------------------------------------------------------------------------ <-- SCF
 
Integrated Spin Density     =     113.581     hbar/2                        
Integrated |Spin Density|   =     118.825     hbar/2                        
 
Final energy, E             =  -41626.92556219     eV
Final free energy (E-TS)    =  -41627.90685959     eV
(energies not corrected for finite basis set)
 
NB est. 0K energy (E-0.5TS)      =  -41627.41621089     eV
 
 For future reference: finite basis dEtot/dlog(Ecut) =      -6.044238eV
 Total energy corrected for finite basis set =  -41627.905690 eV
 
 ************************** Forces **************************
 *                                                          *
 *               Cartesian components (eV/A)                *
 * -------------------------------------------------------- *
 *                         x            y            z      *
 *                                                          *
 * H               1      0.03706     -0.02690      0.01477 *
 * H               2      0.02539     -0.02056      0.00676 *
 * H               3      0.01700      0.02655      0.02091 *
 * H               4     -0.01884      0.02298     -0.00020 *
 * H               5     -0.01200     -0.03820      0.01488 *
 * H               6     -0.00461     -0.03568      0.01777 *
 * H               7     -0.01578     -0.03291      0.02124 *
 * H               8     -0.01294     -0.02886      0.01179 *
 * H               9      0.00284     -0.00374     -0.00349 *
 * H              10     -0.00911     -0.00159      0.01205 *
 * H              11      0.01927     -0.03422      0.02215 *
 * H              12      0.00713     -0.01044      0.00044 *
 * H              13      0.00268     -0.01193      0.00820 *
 * H              14      0.00056     -0.03674      0.03236 *
 * Fe              1      0.03025      0.03851      0.01469 *
 * Fe              2      0.02272      0.12274     -0.00288 *
 * Fe              3      0.02671     -0.00272     -0.00520 *
 * Fe              4      0.00458     -0.04592      0.02256 *
 * Fe              5     -0.01671      0.01418     -0.01806 *
 * Fe              6      0.00991     -0.11885     -0.00098 *
 * Fe              7     -0.01231      0.08804      0.00905 *
 * Fe              8     -0.00313     -0.10718     -0.00572 *
 * Fe              9     -0.00697      0.06541      0.00843 *
 * Fe             10     -0.00745     -0.01398     -0.01142 *
 * Fe             11     -0.01160     -0.11873      0.00303 *
 * Fe             12     -0.01090     -0.06378     -0.02004 *
 * Fe             13     -0.00677      0.13032     -0.00302 *
 * Fe             14      0.02060      0.06564      0.03137 *
 * Fe             15     -0.00357      0.14656      0.01725 *
 * Fe             16      0.00574      0.03972      0.02012 *
 * Fe             17      0.01093     -0.02726     -0.00668 *
 * Fe             18     -0.00909     -0.07144      0.00892 *
 * Fe             19     -0.00003      0.27178      0.02179 *
 * Fe             20      0.00078     -0.12568      0.02085 *
 * Fe             21      0.00682      0.05494      0.00618 *
 * Fe             22     -0.01082     -0.04794     -0.01647 *
 * Fe             23     -0.02656     -0.06218     -0.01852 *
 * Fe             24     -0.00057     -0.13124     -0.02663 *
 * Fe             25      0.02242      0.04050      0.00779 *
 * Fe             26     -0.03295      0.05335     -0.05765 *
 * Fe             27      0.01672      0.01131      0.00725 *
 * Fe             28      0.01291     -0.11330      0.00463 *
 * Fe             29      0.00144      0.07235     -0.08051 *
 * Fe             30     -0.03221     -0.03579     -0.06180 *
 * Fe             31      0.01027      0.07231      0.00948 *
 * Fe             32      0.00997      0.00611      0.00485 *
 * Fe             33     -0.00414      0.06256     -0.09081 *
 * Fe             34     -0.02515      0.04330     -0.05501 *
 * Fe             35      0.01505     -0.09793      0.00117 *
 * Fe             36      0.00435     -0.06294     -0.07970 *
 * Fe             37      0.00965      0.05895      0.02272 *
 * Fe             38     -0.02138      0.03418      0.03498 *
 * Fe             39      0.01027      0.00837      0.01493 *
 * Fe             40      0.01835     -0.08430      0.00445 *
 * Fe             41     -0.05157      0.04866      0.04179 *
 * Fe             42      0.00168      0.02098      0.02990 *
 * Fe             43      0.02292      0.02406      0.02468 *
 * Fe             44      0.02904      0.02451      0.00142 *
 * Fe             45     -0.03068      0.07860     -0.01613 *
 * Fe             46     -0.00936      0.01375     -0.00342 *
 * Fe             47      0.01536     -0.09062      0.01203 *
 * Fe             48     -0.04416     -0.05766     -0.00526 *
 *                                                          *
 ************************************************************
 
 ***************** Stress Tensor *****************
 *                                               *
 *          Cartesian components (GPa)           *
 * --------------------------------------------- *
 *             x             y             z     *
 *                                               *
 *  x     -1.830705     -0.036701     -0.005842  *
 *  y     -0.036701      1.018678     -0.204013  *
 *  z     -0.005842     -0.204013     -0.412506  *
 *                                               *
 *  Pressure:    0.4082                          *
 *                                               *
 *************************************************
 
 Pseudo atomic calculation performed for H 1s1
 
 Converged in 16 iterations to a total energy of -12.4388 eV
 
 Pseudo atomic calculation performed for Fe 3d6 4s2
 
 Converged in 39 iterations to a total energy of -853.7730 eV
Charge spilling parameter for spin component 1 = 0.16%
Charge spilling parameter for spin component 2 = 0.53%
 
                   Orbital Populations                  
  ---------------------------------------------------------------
     Ion    Atom   Orbital              Up        Down      Spin
  ---------------------------------------------------------------
      H     1      S                    0.583     0.645    -0.062
      H     2      S                    0.591     0.661    -0.070
      H     3      S                    0.629     0.684    -0.054
      H     4      S                    0.557     0.643    -0.085
      H     5      S                    0.604     0.671    -0.066
      H     6      S                    0.603     0.670    -0.067
      H     7      S                    0.611     0.670    -0.059
      H     8      S                    0.604     0.672    -0.068
      H     9      S                    0.600     0.668    -0.068
      H    10      S                    0.601     0.665    -0.063
      H    11      S                    0.603     0.672    -0.069
      H    12      S                    0.603     0.671    -0.069
      H    13      S                    0.593     0.661    -0.069
      H    14      S                    0.590     0.668    -0.077
     Fe     1      Dzz                  0.948     0.458     0.490
     Fe     1      Dzy                  0.902     0.456     0.447
     Fe     1      Dzx                  0.902     0.326     0.576
     Fe     1      Dxx-yy               0.916     0.345     0.572
     Fe     1      Dxy                  0.867     0.596     0.272
     Fe     1      S                    0.301     0.261     0.040
     Fe     1      Px                   0.034     0.043    -0.009
     Fe     1      Py                   0.087     0.104    -0.016
     Fe     1      Pz                   0.038     0.022     0.016
     Fe     2      Dzz                  0.902     0.451     0.451
     Fe     2      Dzy                  0.905     0.478     0.427
     Fe     2      Dzx                  0.952     0.289     0.664
     Fe     2      Dxx-yy               0.938     0.342     0.596
     Fe     2      Dxy                  0.881     0.509     0.372
     Fe     2      S                    0.333     0.353    -0.020
     Fe     2      Px                   0.067     0.111    -0.044
     Fe     2      Py                   0.078     0.125    -0.047
     Fe     2      Pz                   0.091     0.160    -0.068
     Fe     3      Dzz                  0.951     0.445     0.506
     Fe     3      Dzy                  0.870     0.463     0.407
     Fe     3      Dzx                  0.914     0.339     0.576
     Fe     3      Dxx-yy               0.912     0.344     0.567
     Fe     3      Dxy                  0.877     0.578     0.299
     Fe     3      S                    0.338     0.310     0.027
     Fe     3      Px                   0.065     0.095    -0.030
     Fe     3      Py                   0.095     0.110    -0.015
     Fe     3      Pz                   0.051     0.045     0.007
     Fe     4      Dzz                  0.953     0.443     0.510
     Fe     4      Dzy                  0.882     0.460     0.422
     Fe     4      Dzx                  0.916     0.321     0.595
     Fe     4      Dxx-yy               0.915     0.350     0.566
     Fe     4      Dxy                  0.873     0.570     0.303
     Fe     4      S                    0.331     0.305     0.026
     Fe     4      Px                   0.061     0.087    -0.026
     Fe     4      Py                   0.090     0.110    -0.021
     Fe     4      Pz                   0.049     0.040     0.008
     Fe     5      Dzz                  0.912     0.448     0.463
     Fe     5      Dzy                  0.913     0.461     0.452
     Fe     5      Dzx                  0.951     0.295     0.656
     Fe     5      Dxx-yy               0.938     0.340     0.598
     Fe     5      Dxy                  0.885     0.507     0.378
     Fe     5      S                    0.328     0.349    -0.021
     Fe     5      Px                   0.072     0.110    -0.038
     Fe     5      Py                   0.070     0.112    -0.042
     Fe     5      Pz                   0.098     0.167    -0.069
     Fe     6      Dzz                  0.898     0.450     0.448
     Fe     6      Dzy                  0.905     0.486     0.419
     Fe     6      Dzx                  0.949     0.297     0.652
     Fe     6      Dxx-yy               0.934     0.347     0.587
     Fe     6      Dxy                  0.877     0.507     0.371
     Fe     6      S                    0.338     0.362    -0.024
     Fe     6      Px                   0.069     0.108    -0.040
     Fe     6      Py                   0.073     0.124    -0.051
     Fe     6      Pz                   0.090     0.159    -0.069
     Fe     7      Dzz                  0.955     0.420     0.535
     Fe     7      Dzy                  0.892     0.472     0.420
     Fe     7      Dzx                  0.932     0.311     0.622
     Fe     7      Dxx-yy               0.925     0.337     0.588
     Fe     7      Dxy                  0.875     0.547     0.328
     Fe     7      S                    0.331     0.299     0.032
     Fe     7      Px                   0.068     0.092    -0.024
     Fe     7      Py                   0.083     0.091    -0.008
     Fe     7      Pz                   0.053     0.036     0.016
     Fe     8      Dzz                  0.954     0.436     0.517
     Fe     8      Dzy                  0.880     0.472     0.408
     Fe     8      Dzx                  0.907     0.333     0.574
     Fe     8      Dxx-yy               0.919     0.335     0.585
     Fe     8      Dxy                  0.884     0.564     0.320
     Fe     8      S                    0.327     0.301     0.026
     Fe     8      Px                   0.072     0.103    -0.031
     Fe     8      Py                   0.097     0.112    -0.015
     Fe     8      Pz                   0.048     0.036     0.012
     Fe     9      Dzz                  0.898     0.445     0.453
     Fe     9      Dzy                  0.901     0.498     0.403
     Fe     9      Dzx                  0.950     0.296     0.654
     Fe     9      Dxx-yy               0.934     0.344     0.590
     Fe     9      Dxy                  0.878     0.508     0.370
     Fe     9      S                    0.337     0.359    -0.022
     Fe     9      Px                   0.068     0.107    -0.040
     Fe     9      Py                   0.071     0.117    -0.046
     Fe     9      Pz                   0.090     0.158    -0.068
     Fe    10      Dzz                  0.902     0.451     0.451
     Fe    10      Dzy                  0.908     0.482     0.426
     Fe    10      Dzx                  0.953     0.289     0.664
     Fe    10      Dxx-yy               0.934     0.345     0.589
     Fe    10      Dxy                  0.877     0.509     0.368
     Fe    10      S                    0.336     0.358    -0.022
     Fe    10      Px                   0.067     0.103    -0.036
     Fe    10      Py                   0.076     0.126    -0.050
     Fe    10      Pz                   0.087     0.158    -0.070
     Fe    11      Dzz                  0.941     0.478     0.462
     Fe    11      Dzy                  0.881     0.437     0.444
     Fe    11      Dzx                  0.931     0.309     0.622
     Fe    11      Dxx-yy               0.941     0.354     0.587
     Fe    11      Dxy                  0.865     0.538     0.327
     Fe    11      S                    0.334     0.304     0.031
     Fe    11      Px                   0.081     0.117    -0.036
     Fe    11      Py                   0.104     0.117    -0.013
     Fe    11      Pz                   0.048     0.035     0.013
     Fe    12      Dzz                  0.907     0.468     0.439
     Fe    12      Dzy                  0.898     0.476     0.422
     Fe    12      Dzx                  0.946     0.297     0.648
     Fe    12      Dxx-yy               0.933     0.361     0.571
     Fe    12      Dxy                  0.876     0.511     0.365
     Fe    12      S                    0.315     0.338    -0.024
     Fe    12      Px                   0.070     0.106    -0.036
     Fe    12      Py                   0.069     0.112    -0.043
     Fe    12      Pz                   0.090     0.156    -0.065
     Fe    13      Dzz                  0.953     0.426     0.527
     Fe    13      Dzy                  0.881     0.503     0.378
     Fe    13      Dzx                  0.931     0.318     0.613
     Fe    13      Dxx-yy               0.915     0.338     0.576
     Fe    13      Dxy                  0.875     0.549     0.326
     Fe    13      S                    0.325     0.298     0.027
     Fe    13      Px                   0.065     0.095    -0.031
     Fe    13      Py                   0.074     0.084    -0.010
     Fe    13      Pz                   0.052     0.036     0.016
     Fe    14      Dzz                  0.901     0.470     0.431
     Fe    14      Dzy                  0.897     0.503     0.393
     Fe    14      Dzx                  0.915     0.318     0.597
     Fe    14      Dxx-yy               0.921     0.368     0.553
     Fe    14      Dxy                  0.878     0.524     0.353
     Fe    14      S                    0.321     0.348    -0.026
     Fe    14      Px                   0.039     0.068    -0.029
     Fe    14      Py                   0.083     0.134    -0.051
     Fe    14      Pz                   0.061     0.112    -0.051
     Fe    15      Dzz                  0.949     0.462     0.487
     Fe    15      Dzy                  0.866     0.481     0.385
     Fe    15      Dzx                  0.910     0.331     0.580
     Fe    15      Dxx-yy               0.912     0.363     0.549
     Fe    15      Dxy                  0.872     0.561     0.311
     Fe    15      S                    0.327     0.306     0.020
     Fe    15      Px                   0.069     0.098    -0.028
     Fe    15      Py                   0.087     0.111    -0.024
     Fe    15      Pz                   0.041     0.030     0.011
     Fe    16      Dzz                  0.949     0.446     0.503
     Fe    16      Dzy                  0.865     0.494     0.371
     Fe    16      Dzx                  0.914     0.332     0.581
     Fe    16      Dxx-yy               0.908     0.348     0.560
     Fe    16      Dxy                  0.875     0.571     0.305
     Fe    16      S                    0.328     0.303     0.025
     Fe    16      Px                   0.066     0.095    -0.030
     Fe    16      Py                   0.086     0.100    -0.014
     Fe    16      Pz                   0.045     0.033     0.011
     Fe    17      Dzz                  0.897     0.449     0.448
     Fe    17      Dzy                  0.901     0.494     0.407
     Fe    17      Dzx                  0.949     0.297     0.652
     Fe    17      Dxx-yy               0.935     0.347     0.588
     Fe    17      Dxy                  0.874     0.510     0.364
     Fe    17      S                    0.340     0.362    -0.022
     Fe    17      Px                   0.064     0.102    -0.037
     Fe    17      Py                   0.069     0.119    -0.050
     Fe    17      Pz                   0.088     0.155    -0.067
     Fe    18      Dzz                  0.900     0.444     0.456
     Fe    18      Dzy                  0.904     0.489     0.416
     Fe    18      Dzx                  0.951     0.297     0.654
     Fe    18      Dxx-yy               0.936     0.346     0.590
     Fe    18      Dxy                  0.886     0.493     0.393
     Fe    18      S                    0.339     0.360    -0.021
     Fe    18      Px                   0.074     0.115    -0.040
     Fe    18      Py                   0.072     0.126    -0.053
     Fe    18      Pz                   0.082     0.149    -0.067
     Fe    19      Dzz                  0.952     0.420     0.531
     Fe    19      Dzy                  0.864     0.519     0.345
     Fe    19      Dzx                  0.912     0.339     0.573
     Fe    19      Dxx-yy               0.912     0.335     0.577
     Fe    19      Dxy                  0.875     0.572     0.303
     Fe    19      S                    0.330     0.304     0.026
     Fe    19      Px                   0.070     0.098    -0.027
     Fe    19      Py                   0.080     0.091    -0.011
     Fe    19      Pz                   0.051     0.037     0.013
     Fe    20      Dzz                  0.929     0.538     0.391
     Fe    20      Dzy                  0.858     0.503     0.355
     Fe    20      Dzx                  0.892     0.335     0.557
     Fe    20      Dxx-yy               0.895     0.363     0.532
     Fe    20      Dxy                  0.855     0.578     0.277
     Fe    20      S                    0.305     0.285     0.020
     Fe    20      Px                   0.069     0.094    -0.026
     Fe    20      Py                   0.083     0.096    -0.013
     Fe    20      Pz                   0.045     0.037     0.008
     Fe    21      Dzz                  0.897     0.448     0.450
     Fe    21      Dzy                  0.904     0.481     0.422
     Fe    21      Dzx                  0.949     0.300     0.650
     Fe    21      Dxx-yy               0.935     0.343     0.592
     Fe    21      Dxy                  0.879     0.513     0.366
     Fe    21      S                    0.339     0.360    -0.021
     Fe    21      Px                   0.068     0.109    -0.041
     Fe    21      Py                   0.073     0.122    -0.048
     Fe    21      Pz                   0.090     0.159    -0.069
     Fe    22      Dzz                  0.908     0.437     0.471
     Fe    22      Dzy                  0.906     0.483     0.423
     Fe    22      Dzx                  0.950     0.294     0.655
     Fe    22      Dxx-yy               0.937     0.343     0.594
     Fe    22      Dxy                  0.881     0.502     0.379
     Fe    22      S                    0.334     0.354    -0.021
     Fe    22      Px                   0.070     0.109    -0.039
     Fe    22      Py                   0.078     0.130    -0.052
     Fe    22      Pz                   0.095     0.162    -0.068
     Fe    23      Dzz                  0.952     0.505     0.447
     Fe    23      Dzy                  0.888     0.473     0.415
     Fe    23      Dzx                  0.897     0.332     0.564
     Fe    23      Dxx-yy               0.889     0.322     0.567
     Fe    23      Dxy                  0.883     0.590     0.293
     Fe    23      S                    0.306     0.283     0.023
     Fe    23      Px                   0.060     0.071    -0.011
     Fe    23      Py                   0.087     0.097    -0.010
     Fe    23      Pz                   0.052     0.045     0.007
     Fe    24      Dzz                  0.902     0.453     0.448
     Fe    24      Dzy                  0.908     0.471     0.438
     Fe    24      Dzx                  0.951     0.293     0.658
     Fe    24      Dxx-yy               0.935     0.346     0.589
     Fe    24      Dxy                  0.877     0.509     0.368
     Fe    24      S                    0.337     0.357    -0.020
     Fe    24      Px                   0.061     0.099    -0.039
     Fe    24      Py                   0.076     0.124    -0.049
     Fe    24      Pz                   0.093     0.161    -0.068
     Fe    25      Dzz                  0.904     0.451     0.453
     Fe    25      Dzy                  0.913     0.485     0.428
     Fe    25      Dzx                  0.951     0.296     0.656
     Fe    25      Dxx-yy               0.933     0.352     0.582
     Fe    25      Dxy                  0.873     0.498     0.375
     Fe    25      S                    0.329     0.356    -0.027
     Fe    25      Px                   0.071     0.111    -0.040
     Fe    25      Py                   0.077     0.137    -0.060
     Fe    25      Pz                   0.079     0.145    -0.066
     Fe    26      Dzz                  0.951     0.348     0.603
     Fe    26      Dzy                  0.944     0.432     0.512
     Fe    26      Dzx                  0.959     0.312     0.647
     Fe    26      Dxx-yy               0.927     0.370     0.557
     Fe    26      Dxy                  0.883     0.529     0.353
     Fe    26      S                    0.406     0.387     0.020
     Fe    26      Px                   0.078     0.089    -0.010
     Fe    26      Py                   0.118     0.178    -0.059
     Fe    26      Pz                   0.059     0.066    -0.006
     Fe    27      Dzz                  0.903     0.455     0.448
     Fe    27      Dzy                  0.911     0.482     0.428
     Fe    27      Dzx                  0.948     0.298     0.650
     Fe    27      Dxx-yy               0.933     0.351     0.582
     Fe    27      Dxy                  0.872     0.505     0.367
     Fe    27      S                    0.331     0.358    -0.028
     Fe    27      Px                   0.068     0.108    -0.040
     Fe    27      Py                   0.078     0.137    -0.060
     Fe    27      Pz                   0.081     0.144    -0.063
     Fe    28      Dzz                  0.903     0.454     0.449
     Fe    28      Dzy                  0.913     0.483     0.430
     Fe    28      Dzx                  0.950     0.298     0.652
     Fe    28      Dxx-yy               0.932     0.354     0.578
     Fe    28      Dxy                  0.874     0.498     0.377
     Fe    28      S                    0.331     0.359    -0.029
     Fe    28      Px                   0.069     0.109    -0.040
     Fe    28      Py                   0.077     0.138    -0.061
     Fe    28      Pz                   0.082     0.147    -0.065
     Fe    29      Dzz                  0.952     0.347     0.605
     Fe    29      Dzy                  0.944     0.436     0.508
     Fe    29      Dzx                  0.959     0.307     0.652
     Fe    29      Dxx-yy               0.928     0.366     0.563
     Fe    29      Dxy                  0.882     0.533     0.349
     Fe    29      S                    0.407     0.386     0.021
     Fe    29      Px                   0.079     0.087    -0.008
     Fe    29      Py                   0.119     0.178    -0.059
     Fe    29      Pz                   0.059     0.065    -0.005
     Fe    30      Dzz                  0.952     0.347     0.605
     Fe    30      Dzy                  0.945     0.432     0.513
     Fe    30      Dzx                  0.959     0.312     0.647
     Fe    30      Dxx-yy               0.928     0.368     0.560
     Fe    30      Dxy                  0.883     0.529     0.354
     Fe    30      S                    0.406     0.386     0.020
     Fe    30      Px                   0.079     0.089    -0.009
     Fe    30      Py                   0.118     0.178    -0.059
     Fe    30      Pz                   0.060     0.065    -0.005
     Fe    31      Dzz                  0.900     0.459     0.441
     Fe    31      Dzy                  0.908     0.489     0.419
     Fe    31      Dzx                  0.949     0.298     0.651
     Fe    31      Dxx-yy               0.931     0.354     0.576
     Fe    31      Dxy                  0.870     0.506     0.364
     Fe    31      S                    0.332     0.360    -0.029
     Fe    31      Px                   0.067     0.107    -0.040
     Fe    31      Py                   0.075     0.136    -0.061
     Fe    31      Pz                   0.078     0.142    -0.065
     Fe    32      Dzz                  0.901     0.456     0.445
     Fe    32      Dzy                  0.909     0.491     0.418
     Fe    32      Dzx                  0.950     0.294     0.656
     Fe    32      Dxx-yy               0.933     0.354     0.579
     Fe    32      Dxy                  0.871     0.503     0.368
     Fe    32      S                    0.331     0.358    -0.027
     Fe    32      Px                   0.069     0.108    -0.039
     Fe    32      Py                   0.075     0.135    -0.060
     Fe    32      Pz                   0.079     0.142    -0.063
     Fe    33      Dzz                  0.952     0.348     0.604
     Fe    33      Dzy                  0.946     0.432     0.514
     Fe    33      Dzx                  0.959     0.310     0.649
     Fe    33      Dxx-yy               0.928     0.368     0.560
     Fe    33      Dxy                  0.884     0.526     0.358
     Fe    33      S                    0.405     0.385     0.020
     Fe    33      Px                   0.080     0.088    -0.008
     Fe    33      Py                   0.119     0.177    -0.058
     Fe    33      Pz                   0.060     0.065    -0.005
     Fe    34      Dzz                  0.952     0.346     0.606
     Fe    34      Dzy                  0.943     0.436     0.507
     Fe    34      Dzx                  0.959     0.310     0.649
     Fe    34      Dxx-yy               0.929     0.365     0.563
     Fe    34      Dxy                  0.882     0.532     0.350
     Fe    34      S                    0.406     0.385     0.021
     Fe    34      Px                   0.079     0.088    -0.009
     Fe    34      Py                   0.118     0.177    -0.059
     Fe    34      Pz                   0.060     0.065    -0.006
     Fe    35      Dzz                  0.900     0.460     0.440
     Fe    35      Dzy                  0.911     0.481     0.430
     Fe    35      Dzx                  0.949     0.297     0.651
     Fe    35      Dxx-yy               0.931     0.354     0.577
     Fe    35      Dxy                  0.873     0.503     0.371
     Fe    35      S                    0.331     0.359    -0.028
     Fe    35      Px                   0.068     0.108    -0.040
     Fe    35      Py                   0.076     0.136    -0.060
     Fe    35      Pz                   0.079     0.142    -0.063
     Fe    36      Dzz                  0.952     0.350     0.602
     Fe    36      Dzy                  0.944     0.433     0.511
     Fe    36      Dzx                  0.959     0.307     0.652
     Fe    36      Dxx-yy               0.928     0.368     0.559
     Fe    36      Dxy                  0.884     0.530     0.354
     Fe    36      S                    0.407     0.386     0.021
     Fe    36      Px                   0.079     0.088    -0.009
     Fe    36      Py                   0.119     0.178    -0.059
     Fe    36      Pz                   0.059     0.065    -0.006
     Fe    37      Dzz                  0.902     0.453     0.448
     Fe    37      Dzy                  0.908     0.490     0.418
     Fe    37      Dzx                  0.946     0.303     0.642
     Fe    37      Dxx-yy               0.932     0.354     0.578
     Fe    37      Dxy                  0.875     0.496     0.379
     Fe    37      S                    0.333     0.361    -0.028
     Fe    37      Px                   0.067     0.106    -0.039
     Fe    37      Py                   0.075     0.135    -0.060
     Fe    37      Pz                   0.075     0.138    -0.063
     Fe    38      Dzz                  0.950     0.351     0.599
     Fe    38      Dzy                  0.943     0.433     0.510
     Fe    38      Dzx                  0.959     0.310     0.649
     Fe    38      Dxx-yy               0.927     0.371     0.556
     Fe    38      Dxy                  0.884     0.528     0.356
     Fe    38      S                    0.407     0.385     0.022
     Fe    38      Px                   0.078     0.086    -0.009
     Fe    38      Py                   0.119     0.179    -0.060
     Fe    38      Pz                   0.057     0.062    -0.005
     Fe    39      Dzz                  0.899     0.460     0.439
     Fe    39      Dzy                  0.898     0.506     0.393
     Fe    39      Dzx                  0.949     0.296     0.652
     Fe    39      Dxx-yy               0.933     0.355     0.578
     Fe    39      Dxy                  0.872     0.499     0.373
     Fe    39      S                    0.335     0.362    -0.027
     Fe    39      Px                   0.072     0.114    -0.041
     Fe    39      Py                   0.075     0.135    -0.059
     Fe    39      Pz                   0.066     0.128    -0.062
     Fe    40      Dzz                  0.900     0.458     0.442
     Fe    40      Dzy                  0.907     0.491     0.416
     Fe    40      Dzx                  0.949     0.299     0.651
     Fe    40      Dxx-yy               0.931     0.356     0.576
     Fe    40      Dxy                  0.874     0.497     0.376
     Fe    40      S                    0.332     0.360    -0.028
     Fe    40      Px                   0.069     0.110    -0.041
     Fe    40      Py                   0.075     0.135    -0.060
     Fe    40      Pz                   0.076     0.139    -0.063
     Fe    41      Dzz                  0.951     0.348     0.603
     Fe    41      Dzy                  0.942     0.440     0.503
     Fe    41      Dzx                  0.958     0.311     0.648
     Fe    41      Dxx-yy               0.927     0.367     0.560
     Fe    41      Dxy                  0.880     0.531     0.349
     Fe    41      S                    0.406     0.387     0.020
     Fe    41      Px                   0.078     0.088    -0.010
     Fe    41      Py                   0.118     0.177    -0.059
     Fe    41      Pz                   0.059     0.064    -0.005
     Fe    42      Dzz                  0.949     0.351     0.598
     Fe    42      Dzy                  0.942     0.440     0.502
     Fe    42      Dzx                  0.959     0.309     0.650
     Fe    42      Dxx-yy               0.926     0.369     0.557
     Fe    42      Dxy                  0.882     0.529     0.353
     Fe    42      S                    0.407     0.387     0.020
     Fe    42      Px                   0.079     0.088    -0.009
     Fe    42      Py                   0.119     0.179    -0.060
     Fe    42      Pz                   0.056     0.062    -0.006
     Fe    43      Dzz                  0.900     0.455     0.445
     Fe    43      Dzy                  0.906     0.494     0.412
     Fe    43      Dzx                  0.950     0.298     0.651
     Fe    43      Dxx-yy               0.931     0.355     0.576
     Fe    43      Dxy                  0.874     0.500     0.374
     Fe    43      S                    0.332     0.361    -0.029
     Fe    43      Px                   0.068     0.109    -0.041
     Fe    43      Py                   0.077     0.138    -0.062
     Fe    43      Pz                   0.077     0.140    -0.063
     Fe    44      Dzz                  0.901     0.457     0.444
     Fe    44      Dzy                  0.905     0.491     0.415
     Fe    44      Dzx                  0.950     0.298     0.652
     Fe    44      Dxx-yy               0.932     0.353     0.578
     Fe    44      Dxy                  0.872     0.502     0.371
     Fe    44      S                    0.332     0.360    -0.028
     Fe    44      Px                   0.068     0.108    -0.040
     Fe    44      Py                   0.075     0.134    -0.059
     Fe    44      Pz                   0.077     0.141    -0.064
     Fe    45      Dzz                  0.949     0.351     0.597
     Fe    45      Dzy                  0.943     0.436     0.507
     Fe    45      Dzx                  0.959     0.312     0.647
     Fe    45      Dxx-yy               0.926     0.371     0.556
     Fe    45      Dxy                  0.883     0.526     0.357
     Fe    45      S                    0.406     0.387     0.019
     Fe    45      Px                   0.079     0.090    -0.010
     Fe    45      Py                   0.119     0.178    -0.059
     Fe    45      Pz                   0.058     0.063    -0.006
     Fe    46      Dzz                  0.950     0.348     0.601
     Fe    46      Dzy                  0.941     0.441     0.500
     Fe    46      Dzx                  0.959     0.307     0.652
     Fe    46      Dxx-yy               0.927     0.367     0.560
     Fe    46      Dxy                  0.882     0.532     0.350
     Fe    46      S                    0.408     0.387     0.021
     Fe    46      Px                   0.079     0.088    -0.009
     Fe    46      Py                   0.119     0.178    -0.059
     Fe    46      Pz                   0.057     0.063    -0.006
     Fe    47      Dzz                  0.899     0.460     0.439
     Fe    47      Dzy                  0.902     0.498     0.404
     Fe    47      Dzx                  0.949     0.297     0.653
     Fe    47      Dxx-yy               0.932     0.357     0.574
     Fe    47      Dxy                  0.875     0.495     0.380
     Fe    47      S                    0.333     0.362    -0.028
     Fe    47      Px                   0.071     0.112    -0.041
     Fe    47      Py                   0.076     0.136    -0.060
     Fe    47      Pz                   0.071     0.134    -0.063
     Fe    48      Dzz                  0.951     0.349     0.602
     Fe    48      Dzy                  0.942     0.437     0.505
     Fe    48      Dzx                  0.958     0.311     0.647
     Fe    48      Dxx-yy               0.926     0.370     0.557
     Fe    48      Dxy                  0.882     0.528     0.354
     Fe    48      S                    0.407     0.387     0.019
     Fe    48      Px                   0.078     0.088    -0.010
     Fe    48      Py                   0.118     0.178    -0.060
     Fe    48      Pz                   0.059     0.065    -0.006
  ---------------------------------------------------------------
                           Total:     255.790   142.209   113.582
  ---------------------------------------------------------------
 
     Atomic Populations (Mulliken)
     -----------------------------
Species          Ion Spin      s       p       d       f      Total   Charge(e)   Spin(hbar/2)
==============================================================================================
  H               1   up:     0.583   0.000   0.000   0.000   0.583    -0.228       -0.062
                  1   dn:     0.645   0.000   0.000   0.000   0.645
  H               2   up:     0.591   0.000   0.000   0.000   0.591    -0.252       -0.070
                  2   dn:     0.661   0.000   0.000   0.000   0.661
  H               3   up:     0.629   0.000   0.000   0.000   0.629    -0.313       -0.054
                  3   dn:     0.684   0.000   0.000   0.000   0.684
  H               4   up:     0.557   0.000   0.000   0.000   0.557    -0.200       -0.085
                  4   dn:     0.643   0.000   0.000   0.000   0.643
  H               5   up:     0.604   0.000   0.000   0.000   0.604    -0.275       -0.066
                  5   dn:     0.671   0.000   0.000   0.000   0.671
  H               6   up:     0.603   0.000   0.000   0.000   0.603    -0.273       -0.067
                  6   dn:     0.670   0.000   0.000   0.000   0.670
  H               7   up:     0.611   0.000   0.000   0.000   0.611    -0.282       -0.059
                  7   dn:     0.670   0.000   0.000   0.000   0.670
  H               8   up:     0.604   0.000   0.000   0.000   0.604    -0.276       -0.068
                  8   dn:     0.672   0.000   0.000   0.000   0.672
  H               9   up:     0.600   0.000   0.000   0.000   0.600    -0.268       -0.068
                  9   dn:     0.668   0.000   0.000   0.000   0.668
  H              10   up:     0.601   0.000   0.000   0.000   0.601    -0.266       -0.063
                 10   dn:     0.665   0.000   0.000   0.000   0.665
  H              11   up:     0.603   0.000   0.000   0.000   0.603    -0.274       -0.069
                 11   dn:     0.672   0.000   0.000   0.000   0.672
  H              12   up:     0.603   0.000   0.000   0.000   0.603    -0.274       -0.069
                 12   dn:     0.671   0.000   0.000   0.000   0.671
  H              13   up:     0.593   0.000   0.000   0.000   0.593    -0.254       -0.069
                 13   dn:     0.661   0.000   0.000   0.000   0.661
  H              14   up:     0.590   0.000   0.000   0.000   0.590    -0.258       -0.077
                 14   dn:     0.668   0.000   0.000   0.000   0.668
  Fe              1   up:     0.301   0.159   4.537   0.000   4.997     0.392        2.386
                  1   dn:     0.261   0.169   2.181   0.000   2.611
  Fe              2   up:     0.333   0.236   4.578   0.000   5.147     0.036        2.329
                  2   dn:     0.353   0.395   2.069   0.000   2.817
  Fe              3   up:     0.338   0.211   4.524   0.000   5.073     0.198        2.345
                  3   dn:     0.310   0.249   2.169   0.000   2.729
  Fe              4   up:     0.331   0.199   4.540   0.000   5.070     0.244        2.384
                  4   dn:     0.305   0.237   2.144   0.000   2.686
  Fe              5   up:     0.328   0.240   4.598   0.000   5.166     0.046        2.378
                  5   dn:     0.349   0.389   2.050   0.000   2.788
  Fe              6   up:     0.338   0.232   4.563   0.000   5.133     0.026        2.292
                  6   dn:     0.362   0.392   2.086   0.000   2.841
  Fe              7   up:     0.331   0.204   4.579   0.000   5.114     0.282        2.510
                  7   dn:     0.299   0.220   2.086   0.000   2.604
  Fe              8   up:     0.327   0.217   4.543   0.000   5.087     0.221        2.395
                  8   dn:     0.301   0.251   2.140   0.000   2.692
  Fe              9   up:     0.337   0.229   4.561   0.000   5.126     0.043        2.295
                  9   dn:     0.359   0.382   2.090   0.000   2.831
  Fe             10   up:     0.336   0.230   4.573   0.000   5.139     0.041        2.320
                 10   dn:     0.358   0.386   2.075   0.000   2.819
  Fe             11   up:     0.334   0.234   4.558   0.000   5.126     0.185        2.437
                 11   dn:     0.304   0.269   2.116   0.000   2.689
  Fe             12   up:     0.315   0.229   4.559   0.000   5.103     0.073        2.279
                 12   dn:     0.338   0.374   2.113   0.000   2.824
  Fe             13   up:     0.325   0.190   4.555   0.000   5.071     0.282        2.424
                 13   dn:     0.298   0.215   2.134   0.000   2.647
  Fe             14   up:     0.321   0.183   4.511   0.000   5.015     0.139        2.170
                 14   dn:     0.348   0.314   2.183   0.000   2.845
  Fe             15   up:     0.327   0.197   4.508   0.000   5.032     0.227        2.291
                 15   dn:     0.306   0.238   2.196   0.000   2.741
  Fe             16   up:     0.328   0.196   4.511   0.000   5.034     0.243        2.312
                 16   dn:     0.303   0.229   2.190   0.000   2.722
  Fe             17   up:     0.340   0.221   4.556   0.000   5.117     0.048        2.283
                 17   dn:     0.362   0.376   2.097   0.000   2.834
  Fe             18   up:     0.339   0.229   4.578   0.000   5.145     0.037        2.328
                 18   dn:     0.360   0.390   2.068   0.000   2.817
  Fe             19   up:     0.330   0.201   4.515   0.000   5.046     0.239        2.331
                 19   dn:     0.304   0.226   2.185   0.000   2.715
  Fe             20   up:     0.305   0.196   4.429   0.000   4.930     0.242        2.101
                 20   dn:     0.285   0.227   2.317   0.000   2.829
  Fe             21   up:     0.339   0.231   4.564   0.000   5.135     0.032        2.301
                 21   dn:     0.360   0.389   2.084   0.000   2.834
  Fe             22   up:     0.334   0.243   4.581   0.000   5.157     0.027        2.341
                 22   dn:     0.354   0.402   2.060   0.000   2.816
  Fe             23   up:     0.306   0.199   4.508   0.000   5.014     0.268        2.295
                 23   dn:     0.283   0.213   2.222   0.000   2.718
  Fe             24   up:     0.337   0.230   4.573   0.000   5.140     0.046        2.326
                 24   dn:     0.357   0.385   2.072   0.000   2.814
  Fe             25   up:     0.329   0.228   4.575   0.000   5.132     0.036        2.300
                 25   dn:     0.356   0.394   2.082   0.000   2.832
  Fe             26   up:     0.406   0.256   4.663   0.000   5.325    -0.035        2.616
                 26   dn:     0.387   0.332   1.991   0.000   2.709
  Fe             27   up:     0.331   0.226   4.567   0.000   5.124     0.035        2.284
                 27   dn:     0.358   0.390   2.092   0.000   2.840
  Fe             28   up:     0.331   0.228   4.572   0.000   5.130     0.031        2.290
                 28   dn:     0.359   0.394   2.087   0.000   2.840
  Fe             29   up:     0.407   0.257   4.665   0.000   5.329    -0.033        2.625
                 29   dn:     0.386   0.330   1.988   0.000   2.704
  Fe             30   up:     0.406   0.258   4.666   0.000   5.329    -0.034        2.624
                 30   dn:     0.386   0.332   1.987   0.000   2.705
  Fe             31   up:     0.332   0.220   4.557   0.000   5.109     0.040        2.258
                 31   dn:     0.360   0.385   2.105   0.000   2.851
  Fe             32   up:     0.331   0.223   4.564   0.000   5.117     0.042        2.276
                 32   dn:     0.358   0.385   2.097   0.000   2.841
  Fe             33   up:     0.405   0.259   4.669   0.000   5.333    -0.031        2.635
                 33   dn:     0.385   0.330   1.984   0.000   2.698
  Fe             34   up:     0.406   0.257   4.664   0.000   5.327    -0.032        2.622
                 34   dn:     0.385   0.330   1.989   0.000   2.705
  Fe             35   up:     0.331   0.224   4.565   0.000   5.119     0.040        2.278
                 35   dn:     0.359   0.386   2.096   0.000   2.841
  Fe             36   up:     0.407   0.257   4.666   0.000   5.329    -0.033        2.626
                 36   dn:     0.386   0.330   1.988   0.000   2.704
  Fe             37   up:     0.333   0.218   4.564   0.000   5.115     0.047        2.277
                 37   dn:     0.361   0.379   2.097   0.000   2.838
  Fe             38   up:     0.407   0.254   4.663   0.000   5.323    -0.027        2.619
                 38   dn:     0.385   0.327   1.992   0.000   2.704
  Fe             39   up:     0.335   0.214   4.551   0.000   5.100     0.046        2.245
                 39   dn:     0.362   0.376   2.116   0.000   2.855
  Fe             40   up:     0.332   0.220   4.562   0.000   5.113     0.041        2.267
                 40   dn:     0.360   0.385   2.101   0.000   2.846
  Fe             41   up:     0.406   0.255   4.659   0.000   5.320    -0.033        2.608
                 41   dn:     0.387   0.329   1.996   0.000   2.712
  Fe             42   up:     0.407   0.254   4.658   0.000   5.319    -0.035        2.604
                 42   dn:     0.387   0.330   1.999   0.000   2.715
  Fe             43   up:     0.332   0.222   4.561   0.000   5.115     0.034        2.264
                 43   dn:     0.361   0.387   2.103   0.000   2.851
  Fe             44   up:     0.332   0.221   4.560   0.000   5.113     0.044        2.269
                 44   dn:     0.360   0.383   2.101   0.000   2.843
  Fe             45   up:     0.406   0.256   4.660   0.000   5.321    -0.035        2.607
                 45   dn:     0.387   0.331   1.996   0.000   2.714
  Fe             46   up:     0.408   0.255   4.660   0.000   5.323    -0.035        2.611
                 46   dn:     0.387   0.329   1.996   0.000   2.712
  Fe             47   up:     0.333   0.218   4.557   0.000   5.109     0.041        2.258
                 47   dn:     0.362   0.382   2.107   0.000   2.850
  Fe             48   up:     0.407   0.255   4.660   0.000   5.322    -0.036        2.608
                 48   dn:     0.387   0.331   1.995   0.000   2.714
==============================================================================================
 
                 Bond                   Population        Spin       Length (A)
================================================================================
              H 3  -- Fe 14                  0.13         0.03          1.63561
              H 4  -- Fe 20                  0.43         0.01          1.64229
              H 3  -- Fe 1                   0.08         0.01          1.64265
              H 14 -- Fe 8                   0.36         0.01          1.66311
              H 2  -- Fe 15                  0.33         0.02          1.70044
              H 1  -- H 4                    0.05         0.02          1.70408
              H 4  -- Fe 11                  0.37         0.01          1.70881
              H 1  -- Fe 20                  0.24         0.01          1.71282
              H 6  -- Fe 3                   0.33         0.01          1.71454
              H 13 -- Fe 19                  0.31         0.02          1.71474
[...]
             Fe 29 -- Fe 42                  0.36        -0.01          2.45552
             Fe 36 -- Fe 46                  0.36        -0.01          2.45553
             Fe 35 -- Fe 44                  0.24        -0.02          2.45575
             Fe 28 -- Fe 43                  0.24        -0.01          2.45577
             Fe 19 -- Fe 22                  0.15        -0.01          2.45617
             Fe 32 -- Fe 36                  0.02         0.03          2.45662
             Fe 39 -- Fe 40                  0.24        -0.02          2.45671
              H 11 -- H 12                   0.01         0.00          2.45718
             Fe 18 -- Fe 43                  0.20        -0.00          2.45782
             Fe 7  -- Fe 10                  0.11        -0.01          2.45801
             Fe 17 -- Fe 40                  0.21        -0.00          2.45802
             Fe 25 -- Fe 47                  0.24        -0.01          2.45819
             Fe 12 -- Fe 22                  0.26        -0.01          2.45890
             Fe 25 -- Fe 39                  0.25        -0.02          2.45898
             Fe 8  -- Fe 23                  0.12        -0.01          2.46013
             Fe 18 -- Fe 21                  0.25        -0.01          2.46024
             Fe 27 -- Fe 40                  0.24        -0.02          2.46030
             Fe 22 -- Fe 24                  0.22        -0.01          2.46082
             Fe 40 -- Fe 41                  0.03         0.03          2.46103
             Fe 25 -- Fe 36                  0.02         0.03          2.46243
             Fe 5  -- Fe 6                   0.25        -0.01          2.46271
             Fe 44 -- Fe 45                  0.02         0.03          2.46325
             Fe 37 -- Fe 47                  0.24        -0.01          2.46341
             Fe 6  -- Fe 7                   0.13        -0.01          2.46358
             Fe 8  -- Fe 9                   0.13        -0.01          2.46367
             Fe 5  -- Fe 18                  0.26        -0.01          2.46434
             Fe 42 -- Fe 43                  0.02         0.03          2.46458
             Fe 37 -- Fe 39                  0.23        -0.01          2.46473
             Fe 7  -- Fe 16                  0.13        -0.02          2.46477
             Fe 9  -- Fe 32                  0.20         0.00          2.46674
             Fe 7  -- Fe 20                  0.06        -0.01          2.46679
             Fe 6  -- Fe 31                  0.20        -0.00          2.46691
             Fe 21 -- Fe 44                  0.21        -0.01          2.46709
             Fe 4  -- Fe 5                   0.14        -0.02          2.46757
             Fe 17 -- Fe 18                  0.25        -0.01          2.46817
             Fe 3  -- Fe 6                   0.13        -0.02          2.46898
             Fe 2  -- Fe 3                   0.11        -0.01          2.46955
             Fe 30 -- Fe 31                  0.03         0.03          2.46983
             Fe 26 -- Fe 27                  0.03         0.03          2.47024
             Fe 32 -- Fe 33                  0.03         0.02          2.47035
             Fe 34 -- Fe 35                  0.03         0.03          2.47283
             Fe 4  -- Fe 9                   0.13        -0.02          2.47327
             Fe 22 -- Fe 47                  0.21        -0.00          2.47432
              H 2  -- H 5                    0.01         0.00          2.47532
             Fe 13 -- Fe 24                  0.14        -0.01          2.47554
             Fe 19 -- Fe 20                  0.14        -0.03          2.47608
              H 10 -- H 13                   0.01         0.00          2.47621
             Fe 7  -- Fe 8                   0.14        -0.02          2.47775
             Fe 10 -- Fe 35                  0.21        -0.00          2.47914
             Fe 28 -- Fe 29                  0.03         0.03          2.47936
             Fe 18 -- Fe 39                  0.22        -0.01          2.47954
             Fe 22 -- Fe 43                  0.21        -0.00          2.48115
             Fe 12 -- Fe 32                  0.21         0.00          2.48121
             Fe 8  -- Fe 11                  0.13        -0.02          2.48154
             Fe 9  -- Fe 28                  0.21        -0.00          2.48206
             Fe 24 -- Fe 37                  0.20         0.00          2.48220
             Fe 24 -- Fe 44                  0.22        -0.01          2.48222
             Fe 17 -- Fe 37                  0.20         0.00          2.48260
             Fe 12 -- Fe 25                  0.21        -0.01          2.48383
             Fe 2  -- Fe 11                  0.09        -0.00          2.48455
             Fe 11 -- Fe 13                  0.28        -0.02          2.48598
             Fe 2  -- Fe 35                  0.22        -0.00          2.48656
             Fe 20 -- Fe 23                 -0.04        -0.01          2.48759
             Fe 21 -- Fe 40                  0.22        -0.01          2.48831
             Fe 5  -- Fe 25                  0.21        -0.01          2.48920
             Fe 10 -- Fe 31                  0.20        -0.00          2.48959
             Fe 2  -- Fe 27                  0.21        -0.00          2.49043
             Fe 6  -- Fe 27                  0.22        -0.00          2.49202
             Fe 5  -- Fe 28                  0.21        -0.00          2.49237
             Fe 20 -- Fe 24                  0.16        -0.02          2.49504
             Fe 20 -- Fe 21                  0.13        -0.01          2.49734
              H 10 -- H 11                   0.01         0.00          2.49762
             Fe 10 -- Fe 11                  0.15        -0.02          2.50258
             Fe 1  -- Fe 23                  0.06        -0.01          2.50718
             Fe 1  -- Fe 15                  0.08        -0.01          2.51352
             Fe 5  -- Fe 14                  0.15        -0.00          2.51984
             Fe 22 -- Fe 23                  0.18        -0.02          2.52389
              H 13 -- Fe 8                   0.04        -0.00          2.53238
             Fe 14 -- Fe 15                  0.11        -0.01          2.53261
             Fe 14 -- Fe 23                  0.06        -0.01          2.53430
             Fe 12 -- Fe 14                  0.09        -0.01          2.55364
              H 4  -- Fe 7                   0.01        -0.00          2.58714
              H 2  -- H 3                   -0.01         0.00          2.58894
              H 5  -- H 7                    0.00         0.00          2.59071
              H 1  -- Fe 11                 -0.04         0.00          2.59653
              H 7  -- H 8                    0.00         0.00          2.60295
             Fe 1  -- Fe 5                   0.08        -0.01          2.60378
              H 10 -- H 14                  -0.00         0.00          2.64163
              H 10 -- Fe 19                  0.00        -0.00          2.64587
              H 7  -- Fe 13                  0.01         0.00          2.64849
              H 4  -- H 7                    0.01         0.00          2.65974
             Fe 1  -- Fe 12                  0.04        -0.01          2.66128
              H 4  -- H 13                   0.00         0.00          2.67463
              H 2  -- Fe 1                  -0.00         0.00          2.67922
              H 2  -- H 9                    0.01         0.00          2.68654
              H 3  -- H 8                   -0.01         0.00          2.69422
              H 12 -- Fe 7                   0.00         0.00          2.69784
              H 9  -- Fe 4                  -0.02         0.00          2.70925
              H 11 -- Fe 16                 -0.01        -0.00          2.72316
              H 4  -- Fe 13                 -0.01         0.00          2.73267
              H 6  -- Fe 15                 -0.02         0.00          2.73271
              H 5  -- Fe 11                 -0.00        -0.00          2.73274
             Fe 14 -- Fe 37                  0.07         0.00          2.73676
              H 8  -- H 12                   0.01         0.00          2.75875
             Fe 15 -- Fe 19                  0.09        -0.02          2.76071
             Fe 5  -- Fe 15                  0.03         0.01          2.76549
              H 6  -- H 10                   0.00         0.00          2.76693
              H 8  -- Fe 3                  -0.02        -0.00          2.76997
             Fe 9  -- Fe 19                  0.01         0.02          2.77683
             Fe 13 -- Fe 16                  0.09        -0.02          2.78040
             Fe 15 -- Fe 23                  0.09        -0.02          2.79181
             Fe 4  -- Fe 6                   0.02         0.01          2.79394
             Fe 39 -- Fe 41                 -0.07         0.02          2.79816
             Fe 13 -- Fe 14                  0.03         0.01          2.80044
              H 7  -- H 11                   0.00         0.00          2.80407
             Fe 1  -- Fe 4                   0.10        -0.02          2.80466
              H 9  -- H 13                   0.00        -0.00          2.80542
             Fe 47 -- Fe 48                 -0.06         0.02          2.80785
             Fe 3  -- Fe 17                  0.01         0.02          2.81197
             Fe 26 -- Fe 37                 -0.07         0.02          2.81238
             Fe 18 -- Fe 28                  0.05         0.01          2.81424
             Fe 16 -- Fe 18                  0.00         0.02          2.81540
             Fe 6  -- Fe 10                  0.15        -0.01          2.81657
             Fe 40 -- Fe 44                  0.08         0.00          2.81693
             Fe 30 -- Fe 40                 -0.07         0.02          2.81748
             Fe 14 -- Fe 18                  0.17        -0.02          2.81914
             Fe 5  -- Fe 12                  0.06        -0.00          2.81931
             Fe 43 -- Fe 45                 -0.07         0.02          2.81939
             Fe 43 -- Fe 47                  0.08         0.00          2.81973
             Fe 9  -- Fe 12                  0.16        -0.01          2.82021
             Fe 17 -- Fe 21                  0.15        -0.01          2.82048
             Fe 8  -- Fe 10                  0.03         0.01          2.82075
             Fe 2  -- Fe 10                  0.17        -0.01          2.82183
             Fe 34 -- Fe 44                 -0.07         0.02          2.82380
             Fe 21 -- Fe 24                  0.16        -0.01          2.82485
             Fe 12 -- Fe 35                  0.04         0.01          2.82512
             Fe 29 -- Fe 36                  0.36        -0.04          2.82554
             Fe 12 -- Fe 23                 -0.09         0.02          2.82589
             Fe 3  -- Fe 7                   0.10        -0.02          2.82593
             Fe 7  -- Fe 21                  0.01         0.01          2.82627
             Fe 27 -- Fe 35                  0.08         0.00          2.82679
             Fe 29 -- Fe 39                 -0.07         0.02          2.82737
             Fe 28 -- Fe 32                  0.07         0.01          2.82775
             Fe 25 -- Fe 38                 -0.07         0.02          2.82808
             Fe 7  -- Fe 11                  0.03        -0.01          2.82830
             Fe 39 -- Fe 43                  0.08         0.01          2.83027
             Fe 26 -- Fe 30                  0.36        -0.04          2.83115
             Fe 26 -- Fe 34                  0.36        -0.04          2.83115
             Fe 17 -- Fe 27                  0.05         0.01          2.83121
             Fe 38 -- Fe 42                  0.37        -0.04          2.83157
             Fe 41 -- Fe 48                  0.36        -0.04          2.83158
             Fe 38 -- Fe 46                  0.37        -0.04          2.83163
             Fe 9  -- Fe 31                  0.04         0.01          2.83174
             Fe 32 -- Fe 46                 -0.06         0.02          2.83285
             Fe 25 -- Fe 32                  0.08         0.00          2.83301
             Fe 5  -- Fe 27                  0.04         0.01          2.83331
             Fe 41 -- Fe 45                  0.36        -0.04          2.83358
             Fe 45 -- Fe 48                  0.36        -0.04          2.83361
              H 14 -- Fe 20                 -0.09         0.00          2.83368
             Fe 18 -- Fe 22                  0.13        -0.01          2.83445
             Fe 25 -- Fe 26                 -0.07         0.02          2.83480
             Fe 28 -- Fe 42                 -0.06         0.02          2.83497
             Fe 31 -- Fe 35                  0.08         0.00          2.83499
             Fe 19 -- Fe 21                 -0.03         0.02          2.83526
             Fe 42 -- Fe 46                  0.37        -0.04          2.83557
             Fe 16 -- Fe 20                  0.06        -0.02          2.83562
             Fe 31 -- Fe 33                 -0.07         0.02          2.83611
             Fe 30 -- Fe 34                  0.36        -0.04          2.83646
             Fe 29 -- Fe 33                  0.36        -0.04          2.83660
             Fe 33 -- Fe 36                  0.36        -0.04          2.83662
             Fe 27 -- Fe 31                  0.08         0.00          2.83699
              H 11 -- H 14                   0.00         0.00          2.83765
             Fe 32 -- Fe 34                 -0.06         0.02          2.83789
             Fe 22 -- Fe 32                  0.04         0.01          2.83805
             Fe 25 -- Fe 28                  0.08        -0.00          2.83806
             Fe 37 -- Fe 44                  0.08         0.00          2.83833
             Fe 36 -- Fe 47                 -0.07         0.02          2.83837
             Fe 11 -- Fe 24                 -0.05         0.02          2.83891
             Fe 28 -- Fe 30                 -0.06         0.02          2.83892
             Fe 33 -- Fe 43                 -0.07         0.02          2.83935
             Fe 27 -- Fe 29                 -0.07         0.02          2.84050
             Fe 35 -- Fe 36                 -0.07         0.02          2.84094
             Fe 14 -- Fe 25                  0.05         0.01          2.84142
             Fe 20 -- Fe 22                  0.02         0.01          2.84245
             Fe 2  -- Fe 13                 -0.04         0.02          2.84258
             Fe 37 -- Fe 40                  0.07         0.00          2.84356
             Fe 40 -- Fe 42                 -0.07         0.02          2.84385
             Fe 10 -- Fe 44                  0.04         0.01          2.84511
             Fe 3  -- Fe 11                  0.09        -0.02          2.84541
             Fe 31 -- Fe 45                 -0.07         0.02          2.84604
             Fe 35 -- Fe 48                 -0.07         0.02          2.84692
             Fe 27 -- Fe 41                 -0.07         0.02          2.84708
             Fe 4  -- Fe 8                   0.06        -0.02          2.84829
             Fe 39 -- Fe 47                  0.06         0.00          2.84891
             Fe 6  -- Fe 16                 -0.03         0.02          2.84991
             Fe 37 -- Fe 38                 -0.08         0.02          2.85060
             Fe 24 -- Fe 35                  0.04         0.01          2.85087
             Fe 14 -- Fe 22                  0.17        -0.01          2.85118
             Fe 21 -- Fe 43                  0.04         0.01          2.85156
             Fe 44 -- Fe 46                 -0.07         0.02          2.85240
             Fe 17 -- Fe 24                  0.11        -0.01          2.85379
             Fe 8  -- Fe 22                 -0.04         0.02          2.85390
             Fe 6  -- Fe 40                  0.04         0.01          2.85454
             Fe 18 -- Fe 40                  0.04         0.01          2.85655
              H 5  -- H 12                   0.00        -0.00          2.85750
             Fe 22 -- Fe 44                  0.03         0.01          2.85878
             Fe 5  -- Fe 9                   0.15        -0.01          2.85930
             Fe 2  -- Fe 6                   0.15        -0.01          2.86046
             Fe 2  -- Fe 37                  0.04         0.01          2.86060
             Fe 1  -- Fe 8                   0.08        -0.02          2.86523
             Fe 24 -- Fe 47                  0.03         0.01          2.86523
             Fe 6  -- Fe 28                  0.04         0.01          2.86574
             Fe 17 -- Fe 39                  0.03         0.01          2.86581
             Fe 21 -- Fe 31                  0.03         0.01          2.86778
             Fe 9  -- Fe 43                  0.03         0.01          2.87422
             Fe 7  -- Fe 9                  -0.04         0.02          2.87656
             Fe 10 -- Fe 32                  0.03         0.01          2.87814
              H 7  -- H 14                   0.00         0.00          2.87838
             Fe 3  -- Fe 5                  -0.03         0.02          2.88024
              H 13 -- Fe 22                 -0.13         0.02          2.88351
             Fe 13 -- Fe 20                 -0.02        -0.02          2.88467
              H 5  -- H 8                    0.00         0.00          2.88620
             Fe 1  -- Fe 2                   0.03         0.00          2.88814
             Fe 12 -- Fe 47                  0.02         0.01          2.88866
             Fe 2  -- Fe 25                  0.03         0.01          2.89258
             Fe 15 -- Fe 17                 -0.06         0.02          2.89287
             Fe 23 -- Fe 24                  0.02         0.02          2.89314
              H 1  -- Fe 24                 -0.12         0.01          2.89341
             Fe 10 -- Fe 20                 -0.02         0.02          2.89840
             Fe 4  -- Fe 18                 -0.07         0.03          2.89969
             Fe 5  -- Fe 39                  0.01         0.01          2.90366
             Fe 11 -- Fe 12                 -0.01         0.02          2.91409
              H 10 -- Fe 21                 -0.16         0.02          2.93069
             Fe 19 -- Fe 23                  0.04        -0.02          2.94756
              H 12 -- Fe 9                  -0.16         0.02          2.95163
              H 3  -- Fe 8                  -0.03         0.00          2.96627
              H 1  -- H 5                    0.00        -0.00          2.96697
              H 9  -- Fe 18                 -0.17         0.02          2.97693
              H 11 -- Fe 6                  -0.16         0.02          2.98076
              H 3  -- Fe 2                  -0.02         0.01          2.98408
              H 6  -- Fe 17                 -0.16         0.02          2.98897
================================================================================
 

Writing analysis data to neb-calc_1-11.castep_bin

Writing model to neb-calc_1-11.check
 
 A BibTeX formatted list of references used in this run has been written to 
 neb-calc_1-11.bib
 
Initialisation time =     10.25 s
Calculation time    =  19596.74 s
Finalisation time   =      6.30 s
Total time          =  19613.29 s
Peak Memory Use     = 2083628 kB
  
Overall parallel efficiency rating: Very good (89%)                             
  
Data was distributed by:-
G-vector (16-way); efficiency rating: Excellent (90%)                           
k-point (8-way); efficiency rating: Excellent (99%)                             
