 +-------------------------------------------------+
 |                                                 |
 |      CCC   AA    SSS  TTTTT  EEEEE  PPPP        |
 |     C     A  A  S       T    E      P   P       |
 |     C     AAAA   SS     T    EEE    PPPP        |
 |     C     A  A     S    T    E      P           |
 |      CCC  A  A  SSS     T    EEEEE  P           |
 |                                                 |
 +-------------------------------------------------+
 |                                                 |
 | Welcome to Academic Release CASTEP version 21.11|          
 | Ab Initio Total Energy Program                  |
 |                                                 |
 | Authors:                                        |
 | M. Segall, M. Probert, C. Pickard, P. Hasnip,   |
 | S. Clark, K. Refson, J. R. Yates, M. Payne      |
 |                                                 |
 | Contributors:                                   |
 | P. Lindan, P. Haynes, J. White, V. Milman,      |
 | N. Govind, M. Gibson, P. Tulip, V. Cocula,      |
 | B. Montanari, D. Quigley, M. Glover,            |
 | L. Bernasconi, A. Perlov, M. Plummer,           |
 | E. McNellis, J. Meyer, J. Gale, D. Jochym       |
 | J. Aarons, B. Walker, R. Gillen, D. Jones       |
 | T. Green, I. J. Bush, C. J. Armstrong,          |
 | E. J. Higgins, E. L. Brown, M. S. McFly,        |
 | J. Wilkins, B-C. Shih, P. J. P. Byrne,          |
 | R. J. Maurer, J. C. Womack, J. Dziedzic,        |
 | A. Bartok-Partay, L. LeBlanc                    |
 |                                                 |
 | Copyright (c) 2000 - 2021                       |
 |                                                 |
 |     Distributed under license from Cambridge    |
 |     Enterprise for academic use only.           |
 |                                                 |
 | Please cite                                     |
 |                                                 |
 |     "First principles methods using CASTEP"     |
 |                                                 |
 |         Zeitschrift fuer Kristallographie       |
 |           220(5-6) pp. 567-570 (2005)           |
 |                                                 |
 | S. J. Clark, M. D. Segall, C. J. Pickard,       |
 | P. J. Hasnip, M. J. Probert, K. Refson,         |
 | M. C. Payne                                     |
 |                                                 |
 |       in all publications arising from          |
 |              your use of CASTEP                 |
 |                                                 |
 +-------------------------------------------------+
 |                                                 |
 |              http://www.castep.org              |
 |                                                 |
 +-------------------------------------------------+
 
 
 
 Compiled for linux_x86_64_cray-XT on Tue, 01 Mar 2022 09:19:15 +0000
 from code version 7d4405a8a+  HEAD  Sat Nov 27 13:38:33 2021 +0000
 Compiler: Cray Fortran 12.0.3; Optimisation: fast
 MATHLIBS: LibSci (LAPACK version 3.6.1)
 FFT Lib : fftw3 version commercial-fftw-3.3.8-sse2-avx-avx2-avx2_128
 Fundamental constants values: CODATA 2014
 
 Run started: Mon, 27 Jun 2022 07:22:41 -0100
 Warning in parameters_read: presetting of magnetic moments on atoms cannot be guaranteed when metals_method /= density mixing
 
 Atomic calculation performed for H: 1s1
 
 Converged in 41 iterations to an ae energy of -12.488 eV
 
   ============================================================                
   | Pseudopotential Report - Date of generation 27-06-2022   |                
   ------------------------------------------------------------                
   | Element: H Ionic charge:  1.00 Level of theory: PBE      |                
   | Atomic Solver: Koelling-Harmon                           |                
   |                                                          |                
   |               Reference Electronic Structure             |                
   |         Orbital         Occupation         Energy        |                
   |            1s              1.000           -0.239        |                
   |                                                          |                
   |                 Pseudopotential Definition               |                
   |        Beta     l      e      Rc     scheme   norm       |                
   |          1      0   -0.239   0.599     qc      0         |                
   |          2      0    0.250   0.599     qc      0         |                
   |         loc     1    0.000   0.599     pn      0         |                
   |                                                          |                
   | Augmentation charge Rinner = 0.421                       |                
   | No partial core correction                               |                
   ------------------------------------------------------------                
   | "1|0.6|13|15|17|10(qc=8)"                                |                
   ------------------------------------------------------------                
   |      Author: Chris J. Pickard, Cambridge University      |                
   ============================================================                
 
 Atomic calculation performed for Fe: 1s2 2s2 2p6 3s2 3p6 3d6 4s2
 
 Converged in 96 iterations to an ae energy of -34625.101 eV
 
   ============================================================                
   | Pseudopotential Report - Date of generation 27-06-2022   |                
   ------------------------------------------------------------                
   | Element: Fe Ionic charge:  8.00 Level of theory: PBE     |                
   | Atomic Solver: Koelling-Harmon                           |                
   |                                                          |                
   |               Reference Electronic Structure             |                
   |         Orbital         Occupation         Energy        |                
   |            3d              6.000           -0.276        |                
   |            4s              2.000           -0.194        |                
   |                                                          |                
   |                 Pseudopotential Definition               |                
   |        Beta     l      e      Rc     scheme   norm       |                
   |          1      0   -0.194   2.399     qc      0         |                
   |          2      0    0.250   2.399     qc      0         |                
   |          3      1    0.000   2.399     qc      0         |                
   |          4      1    0.250   2.399     qc      0         |                
   |          5      2   -0.276   1.997     qc      0         |                
   |          6      2    0.250   1.997     qc      0         |                
   |         loc     3    0.000   2.399     pn      0         |                
   |                                                          |                
   | Augmentation charge Rinner = 1.000                       |                
   | Partial core correction Rc = 1.000                       |                
   ------------------------------------------------------------                
   | "3|2.4|2.4|1.0|8|9|10|40:41:32U2U2(qc=5.5)"              |                
   ------------------------------------------------------------                
   |      Author: Chris J. Pickard, Cambridge University      |                
   ============================================================                
 
 Pseudo atomic calculation performed for H 1s1
 
 Converged in 16 iterations to a total energy of -12.4388 eV
 
 Pseudo atomic calculation performed for Fe 3d6 4s2
 
 Converged in 39 iterations to a total energy of -853.7730 eV
 Calculation parallelised over 128 processes.
 Data is distributed by G-vector(16-way) and k-point(8-way)

 ************************************ Title ************************************
 

 ***************************** General Parameters ******************************
  
 output verbosity                               : normal  (1)
 write checkpoint data to                       : neb-calc_1-3.check
 type of calculation                            : single point energy
 stress calculation                             : on
 density difference calculation                 : off
 electron localisation func (ELF) calculation   : off
 Hirshfeld analysis                             : off
 polarisation (Berry phase) analysis            : off
 molecular orbital projected DOS                : off
 deltaSCF calculation                           : off
 unlimited duration calculation
 timing information                             : on
 memory usage estimate                          : on
 write extra output files                       : on
 write final potential to formatted file        : off
 write final density to formatted file          : off
 write BibTeX reference list                    : on
 write OTFG pseudopotential files               : on
 write electrostatic potential file             : on
 write bands file                               : on
 checkpoint writing                             : both castep_bin and check files
  
 output         length unit                     : A
 output           mass unit                     : amu
 output           time unit                     : ps
 output         charge unit                     : e
 output           spin unit                     : hbar/2
 output         energy unit                     : eV
 output          force unit                     : eV/A
 output       velocity unit                     : A/ps
 output       pressure unit                     : GPa
 output     inv_length unit                     : 1/A
 output      frequency unit                     : cm-1
 output force constant unit                     : eV/A**2
 output         volume unit                     : A**3
 output   IR intensity unit                     : (D/A)**2/amu
 output         dipole unit                     : D
 output         efield unit                     : eV/A/e
 output        entropy unit                     : J/mol/K
 output    efield chi2 unit                     : pm/V
  
 wavefunctions paging                           : none
 random number generator seed                   : randomised (72241299)
 data distribution                              : optimal for this architecture
 optimization strategy                          : balance speed and memory

 *********************** Exchange-Correlation Parameters ***********************
  
 using functional                               : Perdew Burke Ernzerhof
 relativistic treatment                         : Koelling-Harmon
 DFT+D: Semi-empirical dispersion correction    : off

 ************************* Pseudopotential Parameters **************************
  
 pseudopotential representation                 : reciprocal space
 <beta|phi> representation                      : reciprocal space
 spin-orbit coupling                            : off

 **************************** Basis Set Parameters *****************************
  
 plane wave basis set cut-off                   :   400.0000   eV
 size of standard grid                          :     1.7500
 size of   fine   gmax                          :    17.9311   1/A
 finite basis set correction                    : automatic
 number of sample energies                      :          3
           sample  spacing                      :     5.0000   eV

 **************************** Electronic Parameters ****************************
  
 number of  electrons                           :  398.0    
 net charge of system                           :  0.000    
 net spin   of system                           :  120.0    
 number of  up  spins                           :  259.0    
 number of down spins                           :  139.0    
 treating system as spin-polarized
 number of bands                                :       1036
 electron temperature                           :     0.0000   K

 ********************* Electronic Minimization Parameters **********************
  
 Method: Treating system as metallic with ensemble DFT treatment of electrons,
         and number of  SD  steps               :          1
         and number of  CG  steps               :          4
  
 total energy / atom convergence tol.           : 0.1000E-06   eV
 max force / atom convergence tol.              : ignored
 convergence tolerance window                   :          3   cycles
 max. number of SCF cycles                      :        200
 number of fixed-spin iterations                :         10
 smearing scheme                                : Gaussian
 smearing width                                 : 0.2000       eV
 Fermi energy convergence tolerance             : 0.2721E-13   eV
 number of occupancy cycles                     :          6
 periodic dipole correction                     : NONE

 *********************** Population Analysis Parameters ************************
  
 Population analysis with cutoff                :  3.000       A
 Population analysis output                     : summary and pdos components

 *******************************************************************************
  
 
                           -------------------------------
                                      Unit Cell
                           -------------------------------
        Real Lattice(A)                      Reciprocal Lattice(1/A)
     8.0127110     0.0000000     0.0000000        0.784152244   0.000000000   0.000000000
     0.0000000     8.4987630     0.0000000        0.000000000   0.739305862   0.000000000
     0.0000000     0.0000000    18.0000000        0.000000000   0.000000000   0.349065850
 
                       Lattice parameters(A)       Cell Angles
                    a =      8.012711          alpha =   90.000000
                    b =      8.498763          beta  =   90.000000
                    c =     18.000000          gamma =   90.000000
 
                       Current cell volume =          1225.766372       A**3
                                   density =             2.198356   AMU/A**3
                                           =             3.650456     g/cm^3
 
                           -------------------------------
                                     Cell Contents
                           -------------------------------
                         Total number of ions in cell =   62
                      Total number of species in cell =    2
                        Max number of any one species =   48
 
            xxxxxxxxxxxxxxxxxxxxxxxxxxxxxxxxxxxxxxxxxxxxxxxxxxxxxxxxxxxx
            x  Element    Atom        Fractional coordinates of atoms  x
            x            Number           u          v          w      x
            x----------------------------------------------------------x
            x  H            1         0.362832   0.430021   0.222809   x 
            x  H            2         0.397529   0.679826   0.217695   x 
            x  H            3         0.585497   0.573069   0.257252   x 
            x  H            4         0.163446   0.396156   0.219557   x 
            x  H            5         0.707312   0.401199   0.229070   x 
            x  H            6         0.179718   0.746647   0.225176   x 
            x  H            7         0.952639   0.577992   0.228294   x 
            x  H            8         0.706407   0.754777   0.229212   x 
            x  H            9         0.459729   0.917037   0.230142   x 
            x  H           10         0.200617   0.077188   0.227025   x 
            x  H           11         0.948563   0.912523   0.228864   x 
            x  H           12         0.696237   0.077363   0.230094   x 
            x  H           13         0.465845   0.236088   0.230828   x 
            x  H           14         0.945707   0.242725   0.228772   x 
            x  Fe           1         0.772212   0.576681   0.277162   x 
            x  Fe           2         0.014662   0.575158   0.390513   x 
            x  Fe           3         0.014298   0.745014   0.280022   x 
            x  Fe           4         0.768561   0.914561   0.280966   x 
            x  Fe           5         0.764691   0.741710   0.391177   x 
            x  Fe           6         0.015291   0.909839   0.390980   x 
            x  Fe           7         0.018967   0.077329   0.279397   x 
            x  Fe           8         0.767817   0.240522   0.281244   x 
            x  Fe           9         0.765616   0.075793   0.392357   x 
            x  Fe          10         0.015672   0.242641   0.390866   x 
            x  Fe          11         0.013903   0.410210   0.279364   x 
            x  Fe          12         0.765159   0.409701   0.391512   x 
            x  Fe          13         0.266687   0.578678   0.274680   x 
            x  Fe          14         0.511583   0.576150   0.391736   x 
            x  Fe          15         0.518371   0.751855   0.279334   x 
            x  Fe          16         0.266599   0.910491   0.277668   x 
            x  Fe          17         0.263981   0.741961   0.389614   x 
            x  Fe          18         0.514639   0.909494   0.392073   x 
            x  Fe          19         0.517858   0.076909   0.282942   x 
            x  Fe          20         0.267129   0.247013   0.275701   x 
            x  Fe          21         0.264962   0.076032   0.389567   x 
            x  Fe          22         0.514473   0.242937   0.392130   x 
            x  Fe          23         0.518330   0.404569   0.280013   x 
            x  Fe          24         0.264077   0.410175   0.389386   x 
            x  Fe          25         0.762706   0.574381   0.503775   x 
            x  Fe          26         0.013618   0.572193   0.614438   x 
            x  Fe          27         0.012827   0.740667   0.503343   x 
            x  Fe          28         0.762864   0.907475   0.504155   x 
            x  Fe          29         0.763505   0.738429   0.615185   x 
            x  Fe          30         0.013491   0.905319   0.614433   x 
            x  Fe          31         0.013107   0.074437   0.503600   x 
            x  Fe          32         0.762925   0.241273   0.504209   x 
            x  Fe          33         0.763513   0.072195   0.615039   x 
            x  Fe          34         0.013491   0.239068   0.614435   x 
            x  Fe          35         0.012930   0.408162   0.503435   x 
            x  Fe          36         0.763503   0.405964   0.615186   x 
            x  Fe          37         0.262365   0.574361   0.502793   x 
            x  Fe          38         0.513228   0.572197   0.615234   x 
            x  Fe          39         0.512473   0.740495   0.503971   x 
            x  Fe          40         0.262822   0.908055   0.502872   x 
            x  Fe          41         0.263358   0.738785   0.614243   x 
            x  Fe          42         0.513385   0.905373   0.614898   x 
            x  Fe          43         0.512763   0.074504   0.504377   x 
            x  Fe          44         0.262828   0.240727   0.502800   x 
            x  Fe          45         0.263377   0.072195   0.614465   x 
            x  Fe          46         0.513386   0.239016   0.614897   x 
            x  Fe          47         0.512505   0.408478   0.504024   x 
            x  Fe          48         0.263361   0.405609   0.614244   x 
            xxxxxxxxxxxxxxxxxxxxxxxxxxxxxxxxxxxxxxxxxxxxxxxxxxxxxxxxxxxx
 
 
                         No user defined ionic velocities
 
                           -------------------------------
                                   Details of Species
                           -------------------------------
 
                               Mass of species in AMU
                                    H    1.0079400
                                    Fe   55.8450000
 
                          Electric Quadrupole Moment (Barn)
                                    H    0.0028600 Isotope  2
                                    Fe    0.1600000 Isotope 57
         xxxxxxxxxxxxxxxxxxxxxxxxxxxxxxxxxxxxxxxxxxxxxxxxxxxxxxxxxxxxxxxxxxxxxx
         |  Element    Atom         Initial            Initial magnetic       |
         |            Number    spin polarization        moment (uB)     Fix? |
         |--------------------------------------------------------------------|
         | H              1         0.000000              0.000       F       |
         | H              2         0.000000              0.000       F       |
         | H              3         0.000000              0.000       F       |
         | H              4         0.000000              0.000       F       |
         | H              5         0.000000              0.000       F       |
         | H              6         0.000000              0.000       F       |
         | H              7         0.000000              0.000       F       |
         | H              8         0.000000              0.000       F       |
         | H              9         0.000000              0.000       F       |
         | H             10         0.000000              0.000       F       |
         | H             11         0.000000              0.000       F       |
         | H             12         0.000000              0.000       F       |
         | H             13         0.000000              0.000       F       |
         | H             14         0.000000              0.000       F       |
         | Fe             1         0.312500              2.500       F       |
         | Fe             2         0.312500              2.500       F       |
         | Fe             3         0.312500              2.500       F       |
         | Fe             4         0.312500              2.500       F       |
         | Fe             5         0.312500              2.500       F       |
         | Fe             6         0.312500              2.500       F       |
         | Fe             7         0.312500              2.500       F       |
         | Fe             8         0.312500              2.500       F       |
         | Fe             9         0.312500              2.500       F       |
         | Fe            10         0.312500              2.500       F       |
         | Fe            11         0.312500              2.500       F       |
         | Fe            12         0.312500              2.500       F       |
         | Fe            13         0.312500              2.500       F       |
         | Fe            14         0.312500              2.500       F       |
         | Fe            15         0.312500              2.500       F       |
         | Fe            16         0.312500              2.500       F       |
         | Fe            17         0.312500              2.500       F       |
         | Fe            18         0.312500              2.500       F       |
         | Fe            19         0.312500              2.500       F       |
         | Fe            20         0.312500              2.500       F       |
         | Fe            21         0.312500              2.500       F       |
         | Fe            22         0.312500              2.500       F       |
         | Fe            23         0.312500              2.500       F       |
         | Fe            24         0.312500              2.500       F       |
         | Fe            25         0.312500              2.500       F       |
         | Fe            26         0.312500              2.500       F       |
         | Fe            27         0.312500              2.500       F       |
         | Fe            28         0.312500              2.500       F       |
         | Fe            29         0.312500              2.500       F       |
         | Fe            30         0.312500              2.500       F       |
         | Fe            31         0.312500              2.500       F       |
         | Fe            32         0.312500              2.500       F       |
         | Fe            33         0.312500              2.500       F       |
         | Fe            34         0.312500              2.500       F       |
         | Fe            35         0.312500              2.500       F       |
         | Fe            36         0.312500              2.500       F       |
         | Fe            37         0.312500              2.500       F       |
         | Fe            38         0.312500              2.500       F       |
         | Fe            39         0.312500              2.500       F       |
         | Fe            40         0.312500              2.500       F       |
         | Fe            41         0.312500              2.500       F       |
         | Fe            42         0.312500              2.500       F       |
         | Fe            43         0.312500              2.500       F       |
         | Fe            44         0.312500              2.500       F       |
         | Fe            45         0.312500              2.500       F       |
         | Fe            46         0.312500              2.500       F       |
         | Fe            47         0.312500              2.500       F       |
         | Fe            48         0.312500              2.500       F       |
         xxxxxxxxxxxxxxxxxxxxxxxxxxxxxxxxxxxxxxxxxxxxxxxxxxxxxxxxxxxxxxxxxxxxxx
 
 
                          Files used for pseudopotentials:
                                    H 1|0.6|13|15|17|10(qc=8)
                                    Fe 3|2.4|2.4|1.0|8|9|10|40:41:32U2U2(qc=5.5)
 
                           -------------------------------
                              k-Points For BZ Sampling
                           -------------------------------
                       MP grid size for SCF calculation is  4  4  1
                            with an offset of   0.000  0.000  0.000
                       Number of kpoints used =   8
 
                           -------------------------------
                               Symmetry and Constraints
                           -------------------------------
 
                      Maximum deviation from symmetry =  0.00000         ANG
 
                      Number of symmetry operations   = 1
                      Number of ionic constraints     = 3
                      Point group of crystal =     1: C1, 1, 1
                      Space group of crystal =     1: P1, P 1
 
             Set iprint > 1 for details on symmetry rotations/translations
 
                         Centre of mass is constrained
             Set iprint > 1 for details of linear ionic constraints
 
                         Number of cell constraints= 0
                         Cell constraints are:  1 2 3 4 5 6
 
                         External pressure/stress (GPa)
                          0.00000   0.00000   0.00000
                                    0.00000   0.00000
                                              0.00000
  
+---------------- MEMORY AND SCRATCH DISK ESTIMATES PER PROCESS --------------+
|                                                     Memory          Disk    |
| Baseline code, static data and system overhead      771.0 MB         0.0 MB |
| BLAS internal memory storage                          0.0 MB         0.0 MB |
| Model and support data                              262.5 MB        43.6 MB |
| Electronic energy minimisation requirements         456.9 MB         0.0 MB |
| Force calculation requirements                        3.7 MB         0.0 MB |
| Stress calculation requirements                       3.7 MB         0.0 MB |
|                                               ----------------------------- |
| Approx. total storage required per process         1490.3 MB        43.6 MB |
|                                                                             |
| Requirements will fluctuate during execution and may exceed these estimates |
+-----------------------------------------------------------------------------+
Calculating finite basis set correction with  3 cut-off energies.
Calculating total energy with cut-off of  390.000 eV.
Calculating approximate eigenstates for fixed initial Hamiltonian
Cut-off for approx. calculation is  159.419 eV
Improving approx. states at cut-off of  217.691 eV
Resetting cut-off to  389.869 eV
Improving states further at cut-off of  389.869 eV
------------------------------------------------------------------------ <-- SCF
SCF loop      Energy           Fermi           Energy gain       Timer   <-- SCF
                               energy          per atom          (sec)   <-- SCF
------------------------------------------------------------------------ <-- SCF
Initial   3.15456563E+004 -6.20034741E+001                       238.59  <-- SCF
      1  -4.13315711E+004 -4.89187450E+000   1.17543915E+003    1264.20  <-- SCF
      2  -4.15698596E+004 -1.14238244E+000   3.84336228E+000    2283.76  <-- SCF
      3  -4.16180964E+004 -1.05536331E-001   7.78014045E-001    3289.41  <-- SCF
      4  -4.16266369E+004  2.21661599E-001   1.37748627E-001    4298.47  <-- SCF
      5  -4.16272404E+004  2.41061510E-001   9.73510821E-003    5213.60  <-- SCF
      6  -4.16272726E+004  2.31697978E-001   5.18342544E-004    6220.54  <-- SCF
      7  -4.16272732E+004  2.30686562E-001   1.04447830E-005    7418.88  <-- SCF
      8  -4.16272733E+004  2.30398265E-001   1.62890670E-006    8627.25  <-- SCF
      9  -4.16272734E+004  2.30067393E-001   1.08116285E-006    9773.24  <-- SCF
     10  -4.16275683E+004  1.59143102E-001   4.75740389E-003   10487.31  <-- SCF
     11  -4.16276169E+004  1.44382049E-001   7.83390412E-004   11369.81  <-- SCF
     12  -4.16276217E+004  1.40800922E-001   7.70940188E-005   12257.03  <-- SCF
     13  -4.16276226E+004  1.38943582E-001   1.51673272E-005   13297.89  <-- SCF
     14  -4.16276227E+004  1.38675568E-001   3.29234969E-007   14224.26  <-- SCF
     15  -4.16276227E+004  1.38659725E-001   1.62502576E-009   14875.03  <-- SCF
     16  -4.16276227E+004  1.38659725E-001   0.00000000E+000   15439.11  <-- SCF
------------------------------------------------------------------------ <-- SCF
 
Integrated Spin Density     =     112.977     hbar/2                        
Integrated |Spin Density|   =     118.235     hbar/2                        
 
Final energy, E             =  -41626.62004272     eV
Final free energy (E-TS)    =  -41627.62265692     eV
(energies not corrected for finite basis set)
 
NB est. 0K energy (E-0.5TS)      =  -41627.12134982     eV
 
Calculating total energy with cut-off of  395.000 eV.
------------------------------------------------------------------------ <-- SCF
SCF loop      Energy           Fermi           Energy gain       Timer   <-- SCF
                               energy          per atom          (sec)   <-- SCF
------------------------------------------------------------------------ <-- SCF
Initial  -4.16273398E+004  1.39753112E-001                     15480.14  <-- SCF
      1  -4.16277085E+004  1.38775089E-001   5.94715373E-003   15947.65  <-- SCF
      2  -4.16277086E+004  1.38541927E-001   1.19395504E-006   16611.20  <-- SCF
      3  -4.16277086E+004  1.38541927E-001   2.39502691E-012   17222.67  <-- SCF
      4  -4.16277086E+004  1.38541927E-001   0.00000000E+000   17808.20  <-- SCF
------------------------------------------------------------------------ <-- SCF
 
Integrated Spin Density     =     112.951     hbar/2                        
Integrated |Spin Density|   =     118.208     hbar/2                        
 
Final energy, E             =  -41626.70519096     eV
Final free energy (E-TS)    =  -41627.70856422     eV
(energies not corrected for finite basis set)
 
NB est. 0K energy (E-0.5TS)      =  -41627.20687759     eV
 
Calculating total energy with cut-off of  400.000 eV.
------------------------------------------------------------------------ <-- SCF
SCF loop      Energy           Fermi           Energy gain       Timer   <-- SCF
                               energy          per atom          (sec)   <-- SCF
------------------------------------------------------------------------ <-- SCF
Initial  -4.16270345E+004  1.38132485E-001                     17850.76  <-- SCF
      1  -4.16277785E+004  1.38654313E-001   1.19993733E-002   18281.82  <-- SCF
      2  -4.16277791E+004  1.38329767E-001   9.51240143E-006   19103.92  <-- SCF
      3  -4.16277791E+004  1.38329775E-001   7.12520506E-011   19713.20  <-- SCF
      4  -4.16277791E+004  1.38329775E-001   0.00000000E+000   20306.19  <-- SCF
------------------------------------------------------------------------ <-- SCF
 
Integrated Spin Density     =     112.942     hbar/2                        
Integrated |Spin Density|   =     118.201     hbar/2                        
 
Final energy, E             =  -41626.77545242     eV
Final free energy (E-TS)    =  -41627.77908549     eV
(energies not corrected for finite basis set)
 
NB est. 0K energy (E-0.5TS)      =  -41627.27726895     eV
 
 For future reference: finite basis dEtot/dlog(Ecut) =      -6.054799eV
 Total energy corrected for finite basis set =  -41627.777914 eV
 
 ************************** Forces **************************
 *                                                          *
 *               Cartesian components (eV/A)                *
 * -------------------------------------------------------- *
 *                         x            y            z      *
 *                                                          *
 * H               1      0.07947      0.03745     -0.02743 *
 * H               2     -0.10654      0.01746     -0.24497 *
 * H               3     -0.86042      0.45729     -0.62276 *
 * H               4      0.05936      0.08405      0.02802 *
 * H               5     -0.00846      0.03677      0.04077 *
 * H               6      0.02593     -0.01170      0.02314 *
 * H               7      0.12553     -0.00799     -0.04750 *
 * H               8     -0.00809     -0.06673      0.02105 *
 * H               9     -0.00806     -0.01516      0.00338 *
 * H              10     -0.01797      0.01033      0.00626 *
 * H              11      0.00961     -0.00284      0.01679 *
 * H              12      0.00091     -0.00414     -0.00274 *
 * H              13      0.00995     -0.02416      0.00994 *
 * H              14      0.02042     -0.00242      0.03956 *
 * Fe              1      0.55474      0.13014      0.49081 *
 * Fe              2     -0.01017      0.12130      0.02047 *
 * Fe              3      0.08947      0.03380      0.01277 *
 * Fe              4     -0.00461     -0.04376     -0.00379 *
 * Fe              5     -0.01191     -0.01853     -0.02113 *
 * Fe              6     -0.00811     -0.08323      0.00039 *
 * Fe              7      0.01921      0.07948      0.00701 *
 * Fe              8     -0.00912     -0.05954     -0.01712 *
 * Fe              9     -0.00701      0.09715      0.03695 *
 * Fe             10     -0.00660     -0.02999     -0.00914 *
 * Fe             11     -0.01374     -0.14271      0.05193 *
 * Fe             12     -0.04140     -0.00241     -0.04585 *
 * Fe             13      0.03269     -0.07857     -0.04793 *
 * Fe             14      0.23143      0.04530     -0.13495 *
 * Fe             15      0.02476      0.06744      0.19256 *
 * Fe             16     -0.04830      0.07785      0.03178 *
 * Fe             17     -0.01646     -0.01051     -0.02078 *
 * Fe             18      0.00742     -0.05870      0.03910 *
 * Fe             19     -0.00952     -0.12454      0.01459 *
 * Fe             20     -0.04869     -0.10078     -0.05398 *
 * Fe             21     -0.01684      0.12180      0.00582 *
 * Fe             22      0.00406     -0.03979      0.01582 *
 * Fe             23     -0.05089     -0.80203      0.32053 *
 * Fe             24     -0.02427     -0.06523     -0.01062 *
 * Fe             25      0.02324      0.05727     -0.00629 *
 * Fe             26      0.00199      0.06844     -0.00736 *
 * Fe             27      0.01042      0.01625     -0.00055 *
 * Fe             28      0.01144     -0.08259      0.01674 *
 * Fe             29     -0.00797      0.05589     -0.03623 *
 * Fe             30      0.00140     -0.03371     -0.00603 *
 * Fe             31      0.00666      0.06785      0.00750 *
 * Fe             32      0.00366      0.02223      0.01986 *
 * Fe             33      0.00434      0.06893      0.00294 *
 * Fe             34      0.00202      0.05248      0.00203 *
 * Fe             35      0.00539     -0.07979     -0.00276 *
 * Fe             36     -0.00356     -0.03289     -0.03176 *
 * Fe             37      0.01873      0.07406     -0.00309 *
 * Fe             38     -0.02120      0.06813     -0.03543 *
 * Fe             39      0.01049      0.00940      0.00767 *
 * Fe             40      0.00971     -0.08081     -0.00957 *
 * Fe             41     -0.01259      0.05350     -0.02087 *
 * Fe             42     -0.01111     -0.03789      0.00370 *
 * Fe             43      0.00814      0.06801      0.03336 *
 * Fe             44      0.01513      0.02724     -0.00646 *
 * Fe             45     -0.01217      0.06966     -0.03291 *
 * Fe             46     -0.01636      0.05945      0.01843 *
 * Fe             47      0.00779     -0.06965     -0.00656 *
 * Fe             48     -0.01339     -0.04363     -0.02513 *
 *                                                          *
 ************************************************************
 
 ***************** Stress Tensor *****************
 *                                               *
 *          Cartesian components (GPa)           *
 * --------------------------------------------- *
 *             x             y             z     *
 *                                               *
 *  x     -2.100504      0.033822     -0.136148  *
 *  y      0.033822      0.696246     -0.217619  *
 *  z     -0.136148     -0.217619     -0.559154  *
 *                                               *
 *  Pressure:    0.6545                          *
 *                                               *
 *************************************************
 
 Pseudo atomic calculation performed for H 1s1
 
 Converged in 16 iterations to a total energy of -12.4388 eV
 
 Pseudo atomic calculation performed for Fe 3d6 4s2
 
 Converged in 39 iterations to a total energy of -853.7730 eV
Charge spilling parameter for spin component 1 = 0.16%
Charge spilling parameter for spin component 2 = 0.53%
 
                   Orbital Populations                  
  ---------------------------------------------------------------
     Ion    Atom   Orbital              Up        Down      Spin
  ---------------------------------------------------------------
      H     1      S                    0.573     0.643    -0.071
      H     2      S                    0.562     0.642    -0.079
      H     3      S                    0.633     0.693    -0.059
      H     4      S                    0.575     0.656    -0.081
      H     5      S                    0.593     0.661    -0.068
      H     6      S                    0.591     0.666    -0.074
      H     7      S                    0.607     0.668    -0.061
      H     8      S                    0.594     0.664    -0.070
      H     9      S                    0.601     0.660    -0.059
      H    10      S                    0.606     0.673    -0.067
      H    11      S                    0.601     0.669    -0.068
      H    12      S                    0.600     0.668    -0.069
      H    13      S                    0.596     0.655    -0.059
      H    14      S                    0.598     0.668    -0.070
     Fe     1      Dzz                  0.948     0.438     0.509
     Fe     1      Dzy                  0.888     0.498     0.390
     Fe     1      Dzx                  0.913     0.368     0.545
     Fe     1      Dxx-yy               0.868     0.329     0.538
     Fe     1      Dxy                  0.879     0.603     0.276
     Fe     1      S                    0.301     0.272     0.029
     Fe     1      Px                   0.014     0.018    -0.005
     Fe     1      Py                   0.092     0.100    -0.009
     Fe     1      Pz                   0.073     0.060     0.013
     Fe     2      Dzz                  0.897     0.452     0.445
     Fe     2      Dzy                  0.899     0.495     0.405
     Fe     2      Dzx                  0.950     0.291     0.659
     Fe     2      Dxx-yy               0.934     0.348     0.586
     Fe     2      Dxy                  0.875     0.509     0.366
     Fe     2      S                    0.339     0.360    -0.021
     Fe     2      Px                   0.067     0.104    -0.037
     Fe     2      Py                   0.074     0.122    -0.048
     Fe     2      Pz                   0.087     0.155    -0.068
     Fe     3      Dzz                  0.948     0.454     0.495
     Fe     3      Dzy                  0.874     0.483     0.391
     Fe     3      Dzx                  0.896     0.349     0.546
     Fe     3      Dxx-yy               0.913     0.343     0.570
     Fe     3      Dxy                  0.874     0.568     0.306
     Fe     3      S                    0.330     0.305     0.024
     Fe     3      Px                   0.067     0.100    -0.033
     Fe     3      Py                   0.092     0.104    -0.012
     Fe     3      Pz                   0.044     0.034     0.010
     Fe     4      Dzz                  0.950     0.446     0.504
     Fe     4      Dzy                  0.868     0.484     0.384
     Fe     4      Dzx                  0.914     0.332     0.582
     Fe     4      Dxx-yy               0.911     0.344     0.567
     Fe     4      Dxy                  0.873     0.572     0.300
     Fe     4      S                    0.331     0.305     0.026
     Fe     4      Px                   0.061     0.087    -0.026
     Fe     4      Py                   0.087     0.104    -0.016
     Fe     4      Pz                   0.046     0.034     0.011
     Fe     5      Dzz                  0.904     0.441     0.463
     Fe     5      Dzy                  0.905     0.487     0.418
     Fe     5      Dzx                  0.947     0.296     0.651
     Fe     5      Dxx-yy               0.935     0.347     0.588
     Fe     5      Dxy                  0.882     0.500     0.382
     Fe     5      S                    0.332     0.356    -0.023
     Fe     5      Px                   0.071     0.109    -0.038
     Fe     5      Py                   0.075     0.127    -0.052
     Fe     5      Pz                   0.095     0.163    -0.068
     Fe     6      Dzz                  0.896     0.449     0.447
     Fe     6      Dzy                  0.903     0.491     0.413
     Fe     6      Dzx                  0.951     0.297     0.654
     Fe     6      Dxx-yy               0.935     0.348     0.587
     Fe     6      Dxy                  0.878     0.502     0.376
     Fe     6      S                    0.339     0.362    -0.023
     Fe     6      Px                   0.069     0.109    -0.040
     Fe     6      Py                   0.072     0.122    -0.050
     Fe     6      Pz                   0.086     0.155    -0.069
     Fe     7      Dzz                  0.953     0.433     0.520
     Fe     7      Dzy                  0.881     0.476     0.405
     Fe     7      Dzx                  0.914     0.329     0.585
     Fe     7      Dxx-yy               0.918     0.347     0.570
     Fe     7      Dxy                  0.873     0.561     0.312
     Fe     7      S                    0.332     0.304     0.028
     Fe     7      Px                   0.071     0.097    -0.027
     Fe     7      Py                   0.086     0.099    -0.013
     Fe     7      Pz                   0.050     0.039     0.012
     Fe     8      Dzz                  0.950     0.448     0.502
     Fe     8      Dzy                  0.868     0.484     0.383
     Fe     8      Dzx                  0.914     0.331     0.583
     Fe     8      Dxx-yy               0.913     0.343     0.569
     Fe     8      Dxy                  0.874     0.568     0.305
     Fe     8      S                    0.332     0.306     0.025
     Fe     8      Px                   0.063     0.089    -0.026
     Fe     8      Py                   0.090     0.105    -0.016
     Fe     8      Pz                   0.045     0.032     0.012
     Fe     9      Dzz                  0.897     0.446     0.451
     Fe     9      Dzy                  0.900     0.500     0.400
     Fe     9      Dzx                  0.949     0.300     0.649
     Fe     9      Dxx-yy               0.934     0.347     0.587
     Fe     9      Dxy                  0.879     0.501     0.378
     Fe     9      S                    0.338     0.361    -0.023
     Fe     9      Px                   0.071     0.110    -0.039
     Fe     9      Py                   0.067     0.117    -0.050
     Fe     9      Pz                   0.084     0.152    -0.067
     Fe    10      Dzz                  0.899     0.448     0.451
     Fe    10      Dzy                  0.902     0.489     0.413
     Fe    10      Dzx                  0.952     0.294     0.658
     Fe    10      Dxx-yy               0.935     0.345     0.590
     Fe    10      Dxy                  0.876     0.506     0.370
     Fe    10      S                    0.340     0.361    -0.021
     Fe    10      Px                   0.068     0.108    -0.039
     Fe    10      Py                   0.074     0.122    -0.048
     Fe    10      Pz                   0.086     0.156    -0.070
     Fe    11      Dzz                  0.937     0.486     0.451
     Fe    11      Dzy                  0.873     0.476     0.397
     Fe    11      Dzx                  0.881     0.355     0.526
     Fe    11      Dxx-yy               0.915     0.348     0.567
     Fe    11      Dxy                  0.871     0.570     0.301
     Fe    11      S                    0.326     0.305     0.021
     Fe    11      Px                   0.066     0.103    -0.037
     Fe    11      Py                   0.092     0.105    -0.013
     Fe    11      Pz                   0.039     0.033     0.006
     Fe    12      Dzz                  0.901     0.446     0.454
     Fe    12      Dzy                  0.906     0.485     0.422
     Fe    12      Dzx                  0.946     0.297     0.649
     Fe    12      Dxx-yy               0.933     0.352     0.581
     Fe    12      Dxy                  0.884     0.494     0.390
     Fe    12      S                    0.333     0.357    -0.024
     Fe    12      Px                   0.070     0.108    -0.038
     Fe    12      Py                   0.073     0.126    -0.053
     Fe    12      Pz                   0.094     0.161    -0.067
     Fe    13      Dzz                  0.946     0.500     0.447
     Fe    13      Dzy                  0.882     0.460     0.422
     Fe    13      Dzx                  0.935     0.292     0.643
     Fe    13      Dxx-yy               0.949     0.388     0.561
     Fe    13      Dxy                  0.837     0.483     0.354
     Fe    13      S                    0.327     0.294     0.033
     Fe    13      Px                   0.089     0.114    -0.025
     Fe    13      Py                   0.096     0.100    -0.004
     Fe    13      Pz                   0.046     0.023     0.023
     Fe    14      Dzz                  0.907     0.437     0.470
     Fe    14      Dzy                  0.905     0.480     0.425
     Fe    14      Dzx                  0.956     0.288     0.668
     Fe    14      Dxx-yy               0.937     0.344     0.593
     Fe    14      Dxy                  0.881     0.509     0.371
     Fe    14      S                    0.345     0.362    -0.017
     Fe    14      Px                   0.070     0.109    -0.039
     Fe    14      Py                   0.078     0.127    -0.049
     Fe    14      Pz                   0.117     0.180    -0.063
     Fe    15      Dzz                  0.921     0.532     0.390
     Fe    15      Dzy                  0.864     0.540     0.324
     Fe    15      Dzx                  0.873     0.354     0.519
     Fe    15      Dxx-yy               0.896     0.362     0.534
     Fe    15      Dxy                  0.853     0.565     0.288
     Fe    15      S                    0.292     0.276     0.016
     Fe    15      Px                   0.078     0.107    -0.029
     Fe    15      Py                   0.048     0.057    -0.009
     Fe    15      Pz                   0.044     0.040     0.005
     Fe    16      Dzz                  0.954     0.437     0.517
     Fe    16      Dzy                  0.890     0.468     0.423
     Fe    16      Dzx                  0.935     0.299     0.636
     Fe    16      Dxx-yy               0.926     0.335     0.590
     Fe    16      Dxy                  0.875     0.547     0.328
     Fe    16      S                    0.332     0.297     0.034
     Fe    16      Px                   0.061     0.082    -0.021
     Fe    16      Py                   0.083     0.089    -0.006
     Fe    16      Pz                   0.054     0.037     0.017
     Fe    17      Dzz                  0.900     0.446     0.454
     Fe    17      Dzy                  0.907     0.483     0.424
     Fe    17      Dzx                  0.951     0.296     0.655
     Fe    17      Dxx-yy               0.934     0.344     0.590
     Fe    17      Dxy                  0.878     0.510     0.368
     Fe    17      S                    0.335     0.358    -0.023
     Fe    17      Px                   0.068     0.106    -0.038
     Fe    17      Py                   0.075     0.125    -0.049
     Fe    17      Pz                   0.090     0.161    -0.071
     Fe    18      Dzz                  0.900     0.442     0.457
     Fe    18      Dzy                  0.904     0.484     0.420
     Fe    18      Dzx                  0.951     0.300     0.651
     Fe    18      Dxx-yy               0.937     0.347     0.590
     Fe    18      Dxy                  0.883     0.498     0.385
     Fe    18      S                    0.343     0.361    -0.018
     Fe    18      Px                   0.074     0.115    -0.041
     Fe    18      Py                   0.070     0.120    -0.050
     Fe    18      Pz                   0.081     0.148    -0.068
     Fe    19      Dzz                  0.947     0.449     0.498
     Fe    19      Dzy                  0.848     0.527     0.321
     Fe    19      Dzx                  0.904     0.349     0.555
     Fe    19      Dxx-yy               0.900     0.357     0.543
     Fe    19      Dxy                  0.875     0.564     0.311
     Fe    19      S                    0.329     0.309     0.019
     Fe    19      Px                   0.073     0.107    -0.034
     Fe    19      Py                   0.085     0.100    -0.015
     Fe    19      Pz                   0.040     0.029     0.011
     Fe    20      Dzz                  0.953     0.467     0.486
     Fe    20      Dzy                  0.892     0.454     0.438
     Fe    20      Dzx                  0.939     0.293     0.646
     Fe    20      Dxx-yy               0.926     0.343     0.583
     Fe    20      Dxy                  0.867     0.539     0.327
     Fe    20      S                    0.329     0.295     0.034
     Fe    20      Px                   0.058     0.075    -0.017
     Fe    20      Py                   0.090     0.094    -0.004
     Fe    20      Pz                   0.055     0.038     0.017
     Fe    21      Dzz                  0.900     0.445     0.455
     Fe    21      Dzy                  0.904     0.486     0.418
     Fe    21      Dzx                  0.947     0.300     0.647
     Fe    21      Dxx-yy               0.933     0.343     0.590
     Fe    21      Dxy                  0.875     0.518     0.357
     Fe    21      S                    0.335     0.360    -0.026
     Fe    21      Px                   0.067     0.108    -0.040
     Fe    21      Py                   0.075     0.125    -0.050
     Fe    21      Pz                   0.097     0.166    -0.069
     Fe    22      Dzz                  0.902     0.438     0.464
     Fe    22      Dzy                  0.903     0.490     0.412
     Fe    22      Dzx                  0.951     0.296     0.655
     Fe    22      Dxx-yy               0.938     0.345     0.594
     Fe    22      Dxy                  0.881     0.499     0.382
     Fe    22      S                    0.341     0.358    -0.018
     Fe    22      Px                   0.073     0.113    -0.041
     Fe    22      Py                   0.070     0.120    -0.050
     Fe    22      Pz                   0.081     0.148    -0.067
     Fe    23      Dzz                  0.933     0.511     0.422
     Fe    23      Dzy                  0.880     0.554     0.325
     Fe    23      Dzx                  0.869     0.355     0.514
     Fe    23      Dxx-yy               0.879     0.350     0.529
     Fe    23      Dxy                  0.863     0.573     0.290
     Fe    23      S                    0.281     0.266     0.015
     Fe    23      Px                   0.066     0.093    -0.028
     Fe    23      Py                   0.031     0.038    -0.007
     Fe    23      Pz                   0.054     0.054    -0.000
     Fe    24      Dzz                  0.902     0.449     0.453
     Fe    24      Dzy                  0.911     0.468     0.443
     Fe    24      Dzx                  0.951     0.297     0.653
     Fe    24      Dxx-yy               0.934     0.344     0.590
     Fe    24      Dxy                  0.880     0.510     0.370
     Fe    24      S                    0.334     0.356    -0.023
     Fe    24      Px                   0.066     0.105    -0.038
     Fe    24      Py                   0.076     0.125    -0.049
     Fe    24      Pz                   0.087     0.160    -0.072
     Fe    25      Dzz                  0.900     0.457     0.443
     Fe    25      Dzy                  0.905     0.495     0.410
     Fe    25      Dzx                  0.951     0.299     0.652
     Fe    25      Dxx-yy               0.931     0.355     0.576
     Fe    25      Dxy                  0.872     0.499     0.373
     Fe    25      S                    0.333     0.361    -0.028
     Fe    25      Px                   0.069     0.110    -0.041
     Fe    25      Py                   0.076     0.136    -0.061
     Fe    25      Pz                   0.078     0.142    -0.063
     Fe    26      Dzz                  0.949     0.350     0.599
     Fe    26      Dzy                  0.942     0.438     0.503
     Fe    26      Dzx                  0.958     0.312     0.646
     Fe    26      Dxx-yy               0.926     0.370     0.555
     Fe    26      Dxy                  0.882     0.528     0.354
     Fe    26      S                    0.407     0.387     0.020
     Fe    26      Px                   0.078     0.089    -0.011
     Fe    26      Py                   0.118     0.177    -0.059
     Fe    26      Pz                   0.058     0.064    -0.006
     Fe    27      Dzz                  0.901     0.457     0.444
     Fe    27      Dzy                  0.906     0.493     0.413
     Fe    27      Dzx                  0.949     0.298     0.651
     Fe    27      Dxx-yy               0.932     0.354     0.578
     Fe    27      Dxy                  0.871     0.503     0.367
     Fe    27      S                    0.332     0.360    -0.028
     Fe    27      Px                   0.069     0.109    -0.041
     Fe    27      Py                   0.076     0.136    -0.060
     Fe    27      Pz                   0.076     0.139    -0.063
     Fe    28      Dzz                  0.900     0.456     0.444
     Fe    28      Dzy                  0.907     0.492     0.415
     Fe    28      Dzx                  0.950     0.299     0.650
     Fe    28      Dxx-yy               0.932     0.356     0.576
     Fe    28      Dxy                  0.874     0.495     0.378
     Fe    28      S                    0.333     0.361    -0.028
     Fe    28      Px                   0.070     0.111    -0.041
     Fe    28      Py                   0.076     0.138    -0.062
     Fe    28      Pz                   0.076     0.139    -0.063
     Fe    29      Dzz                  0.950     0.348     0.603
     Fe    29      Dzy                  0.943     0.439     0.503
     Fe    29      Dzx                  0.960     0.308     0.651
     Fe    29      Dxx-yy               0.928     0.366     0.562
     Fe    29      Dxy                  0.881     0.532     0.349
     Fe    29      S                    0.407     0.386     0.021
     Fe    29      Px                   0.079     0.087    -0.009
     Fe    29      Py                   0.119     0.178    -0.059
     Fe    29      Pz                   0.059     0.063    -0.005
     Fe    30      Dzz                  0.951     0.349     0.602
     Fe    30      Dzy                  0.943     0.436     0.507
     Fe    30      Dzx                  0.958     0.312     0.647
     Fe    30      Dxx-yy               0.927     0.368     0.559
     Fe    30      Dxy                  0.882     0.529     0.353
     Fe    30      S                    0.407     0.386     0.021
     Fe    30      Px                   0.080     0.089    -0.010
     Fe    30      Py                   0.118     0.178    -0.060
     Fe    30      Pz                   0.058     0.063    -0.005
     Fe    31      Dzz                  0.900     0.457     0.444
     Fe    31      Dzy                  0.905     0.494     0.411
     Fe    31      Dzx                  0.948     0.300     0.648
     Fe    31      Dxx-yy               0.931     0.355     0.576
     Fe    31      Dxy                  0.871     0.503     0.369
     Fe    31      S                    0.333     0.361    -0.029
     Fe    31      Px                   0.069     0.111    -0.041
     Fe    31      Py                   0.076     0.137    -0.061
     Fe    31      Pz                   0.076     0.139    -0.063
     Fe    32      Dzz                  0.901     0.455     0.446
     Fe    32      Dzy                  0.904     0.496     0.408
     Fe    32      Dzx                  0.950     0.299     0.651
     Fe    32      Dxx-yy               0.933     0.354     0.579
     Fe    32      Dxy                  0.871     0.499     0.372
     Fe    32      S                    0.333     0.361    -0.028
     Fe    32      Px                   0.070     0.111    -0.041
     Fe    32      Py                   0.076     0.137    -0.061
     Fe    32      Pz                   0.075     0.138    -0.063
     Fe    33      Dzz                  0.949     0.351     0.598
     Fe    33      Dzy                  0.943     0.437     0.506
     Fe    33      Dzx                  0.959     0.310     0.649
     Fe    33      Dxx-yy               0.927     0.370     0.557
     Fe    33      Dxy                  0.882     0.526     0.356
     Fe    33      S                    0.405     0.386     0.019
     Fe    33      Px                   0.080     0.089    -0.009
     Fe    33      Py                   0.120     0.179    -0.059
     Fe    33      Pz                   0.058     0.063    -0.005
     Fe    34      Dzz                  0.950     0.348     0.602
     Fe    34      Dzy                  0.942     0.439     0.502
     Fe    34      Dzx                  0.958     0.311     0.648
     Fe    34      Dxx-yy               0.927     0.366     0.561
     Fe    34      Dxy                  0.880     0.533     0.347
     Fe    34      S                    0.407     0.386     0.021
     Fe    34      Px                   0.079     0.089    -0.010
     Fe    34      Py                   0.119     0.178    -0.059
     Fe    34      Pz                   0.058     0.063    -0.005
     Fe    35      Dzz                  0.898     0.460     0.438
     Fe    35      Dzy                  0.906     0.490     0.416
     Fe    35      Dzx                  0.949     0.299     0.650
     Fe    35      Dxx-yy               0.931     0.356     0.574
     Fe    35      Dxy                  0.873     0.500     0.373
     Fe    35      S                    0.332     0.361    -0.028
     Fe    35      Px                   0.069     0.110    -0.041
     Fe    35      Py                   0.076     0.136    -0.061
     Fe    35      Pz                   0.076     0.138    -0.062
     Fe    36      Dzz                  0.950     0.350     0.600
     Fe    36      Dzy                  0.943     0.436     0.507
     Fe    36      Dzx                  0.960     0.309     0.651
     Fe    36      Dxx-yy               0.927     0.369     0.559
     Fe    36      Dxy                  0.882     0.529     0.353
     Fe    36      S                    0.407     0.386     0.020
     Fe    36      Px                   0.079     0.088    -0.009
     Fe    36      Py                   0.119     0.178    -0.060
     Fe    36      Pz                   0.059     0.063    -0.005
     Fe    37      Dzz                  0.900     0.456     0.443
     Fe    37      Dzy                  0.909     0.488     0.421
     Fe    37      Dzx                  0.950     0.299     0.651
     Fe    37      Dxx-yy               0.931     0.354     0.578
     Fe    37      Dxy                  0.871     0.503     0.368
     Fe    37      S                    0.331     0.360    -0.029
     Fe    37      Px                   0.068     0.108    -0.040
     Fe    37      Py                   0.075     0.135    -0.060
     Fe    37      Pz                   0.078     0.143    -0.065
     Fe    38      Dzz                  0.949     0.353     0.596
     Fe    38      Dzy                  0.943     0.436     0.506
     Fe    38      Dzx                  0.959     0.308     0.651
     Fe    38      Dxx-yy               0.925     0.371     0.554
     Fe    38      Dxy                  0.883     0.530     0.353
     Fe    38      S                    0.408     0.386     0.021
     Fe    38      Px                   0.079     0.087    -0.009
     Fe    38      Py                   0.119     0.178    -0.059
     Fe    38      Pz                   0.058     0.063    -0.005
     Fe    39      Dzz                  0.900     0.459     0.442
     Fe    39      Dzy                  0.903     0.495     0.409
     Fe    39      Dzx                  0.949     0.298     0.651
     Fe    39      Dxx-yy               0.932     0.354     0.578
     Fe    39      Dxy                  0.871     0.502     0.369
     Fe    39      S                    0.333     0.361    -0.029
     Fe    39      Px                   0.069     0.110    -0.041
     Fe    39      Py                   0.077     0.136    -0.060
     Fe    39      Pz                   0.075     0.138    -0.063
     Fe    40      Dzz                  0.900     0.457     0.443
     Fe    40      Dzy                  0.910     0.485     0.425
     Fe    40      Dzx                  0.949     0.300     0.649
     Fe    40      Dxx-yy               0.931     0.355     0.576
     Fe    40      Dxy                  0.872     0.499     0.373
     Fe    40      S                    0.331     0.359    -0.029
     Fe    40      Px                   0.069     0.110    -0.041
     Fe    40      Py                   0.076     0.137    -0.061
     Fe    40      Pz                   0.079     0.143    -0.065
     Fe    41      Dzz                  0.951     0.347     0.604
     Fe    41      Dzy                  0.942     0.439     0.504
     Fe    41      Dzx                  0.959     0.311     0.647
     Fe    41      Dxx-yy               0.928     0.366     0.562
     Fe    41      Dxy                  0.879     0.532     0.347
     Fe    41      S                    0.405     0.386     0.019
     Fe    41      Px                   0.079     0.088    -0.009
     Fe    41      Py                   0.118     0.177    -0.059
     Fe    41      Pz                   0.060     0.065    -0.005
     Fe    42      Dzz                  0.950     0.351     0.599
     Fe    42      Dzy                  0.942     0.437     0.505
     Fe    42      Dzx                  0.959     0.309     0.649
     Fe    42      Dxx-yy               0.926     0.369     0.557
     Fe    42      Dxy                  0.882     0.530     0.352
     Fe    42      S                    0.407     0.386     0.021
     Fe    42      Px                   0.079     0.088    -0.009
     Fe    42      Py                   0.119     0.179    -0.059
     Fe    42      Pz                   0.058     0.063    -0.005
     Fe    43      Dzz                  0.900     0.456     0.444
     Fe    43      Dzy                  0.909     0.496     0.413
     Fe    43      Dzx                  0.949     0.299     0.649
     Fe    43      Dxx-yy               0.932     0.353     0.579
     Fe    43      Dxy                  0.871     0.500     0.371
     Fe    43      S                    0.333     0.362    -0.029
     Fe    43      Px                   0.070     0.111    -0.041
     Fe    43      Py                   0.076     0.137    -0.061
     Fe    43      Pz                   0.073     0.136    -0.062
     Fe    44      Dzz                  0.901     0.454     0.447
     Fe    44      Dzy                  0.908     0.488     0.420
     Fe    44      Dzx                  0.950     0.300     0.649
     Fe    44      Dxx-yy               0.932     0.352     0.580
     Fe    44      Dxy                  0.870     0.503     0.367
     Fe    44      S                    0.331     0.359    -0.028
     Fe    44      Px                   0.069     0.109    -0.041
     Fe    44      Py                   0.076     0.136    -0.060
     Fe    44      Pz                   0.079     0.144    -0.065
     Fe    45      Dzz                  0.951     0.349     0.601
     Fe    45      Dzy                  0.944     0.431     0.513
     Fe    45      Dzx                  0.959     0.313     0.646
     Fe    45      Dxx-yy               0.927     0.369     0.558
     Fe    45      Dxy                  0.883     0.527     0.356
     Fe    45      S                    0.405     0.386     0.019
     Fe    45      Px                   0.080     0.090    -0.010
     Fe    45      Py                   0.119     0.178    -0.059
     Fe    45      Pz                   0.060     0.064    -0.005
     Fe    46      Dzz                  0.951     0.349     0.601
     Fe    46      Dzy                  0.942     0.439     0.503
     Fe    46      Dzx                  0.959     0.308     0.650
     Fe    46      Dxx-yy               0.927     0.366     0.561
     Fe    46      Dxy                  0.881     0.533     0.348
     Fe    46      S                    0.408     0.386     0.022
     Fe    46      Px                   0.079     0.088    -0.009
     Fe    46      Py                   0.119     0.178    -0.059
     Fe    46      Pz                   0.058     0.062    -0.005
     Fe    47      Dzz                  0.899     0.461     0.438
     Fe    47      Dzy                  0.905     0.492     0.413
     Fe    47      Dzx                  0.949     0.298     0.651
     Fe    47      Dxx-yy               0.931     0.356     0.575
     Fe    47      Dxy                  0.873     0.498     0.375
     Fe    47      S                    0.333     0.362    -0.029
     Fe    47      Px                   0.070     0.110    -0.041
     Fe    47      Py                   0.076     0.137    -0.061
     Fe    47      Pz                   0.075     0.138    -0.063
     Fe    48      Dzz                  0.951     0.348     0.603
     Fe    48      Dzy                  0.943     0.436     0.507
     Fe    48      Dzx                  0.958     0.312     0.646
     Fe    48      Dxx-yy               0.927     0.369     0.558
     Fe    48      Dxy                  0.881     0.529     0.352
     Fe    48      S                    0.406     0.386     0.019
     Fe    48      Px                   0.079     0.089    -0.010
     Fe    48      Py                   0.117     0.177    -0.060
     Fe    48      Pz                   0.060     0.065    -0.006
  ---------------------------------------------------------------
                           Total:     255.471   142.528   112.943
  ---------------------------------------------------------------
 
     Atomic Populations (Mulliken)
     -----------------------------
Species          Ion Spin      s       p       d       f      Total   Charge(e)   Spin(hbar/2)
==============================================================================================
  H               1   up:     0.573   0.000   0.000   0.000   0.573    -0.216       -0.071
                  1   dn:     0.643   0.000   0.000   0.000   0.643
  H               2   up:     0.562   0.000   0.000   0.000   0.562    -0.204       -0.079
                  2   dn:     0.642   0.000   0.000   0.000   0.642
  H               3   up:     0.633   0.000   0.000   0.000   0.633    -0.326       -0.059
                  3   dn:     0.693   0.000   0.000   0.000   0.693
  H               4   up:     0.575   0.000   0.000   0.000   0.575    -0.231       -0.081
                  4   dn:     0.656   0.000   0.000   0.000   0.656
  H               5   up:     0.593   0.000   0.000   0.000   0.593    -0.254       -0.068
                  5   dn:     0.661   0.000   0.000   0.000   0.661
  H               6   up:     0.591   0.000   0.000   0.000   0.591    -0.257       -0.074
                  6   dn:     0.666   0.000   0.000   0.000   0.666
  H               7   up:     0.607   0.000   0.000   0.000   0.607    -0.274       -0.061
                  7   dn:     0.668   0.000   0.000   0.000   0.668
  H               8   up:     0.594   0.000   0.000   0.000   0.594    -0.258       -0.070
                  8   dn:     0.664   0.000   0.000   0.000   0.664
  H               9   up:     0.601   0.000   0.000   0.000   0.601    -0.261       -0.059
                  9   dn:     0.660   0.000   0.000   0.000   0.660
  H              10   up:     0.606   0.000   0.000   0.000   0.606    -0.280       -0.067
                 10   dn:     0.673   0.000   0.000   0.000   0.673
  H              11   up:     0.601   0.000   0.000   0.000   0.601    -0.271       -0.068
                 11   dn:     0.669   0.000   0.000   0.000   0.669
  H              12   up:     0.600   0.000   0.000   0.000   0.600    -0.268       -0.069
                 12   dn:     0.668   0.000   0.000   0.000   0.668
  H              13   up:     0.596   0.000   0.000   0.000   0.596    -0.251       -0.059
                 13   dn:     0.655   0.000   0.000   0.000   0.655
  H              14   up:     0.598   0.000   0.000   0.000   0.598    -0.265       -0.070
                 14   dn:     0.668   0.000   0.000   0.000   0.668
  Fe              1   up:     0.301   0.178   4.496   0.000   4.975     0.335        2.286
                  1   dn:     0.272   0.179   2.238   0.000   2.689
  Fe              2   up:     0.339   0.228   4.556   0.000   5.124     0.040        2.287
                  2   dn:     0.360   0.381   2.096   0.000   2.837
  Fe              3   up:     0.330   0.202   4.505   0.000   5.037     0.223        2.297
                  3   dn:     0.305   0.237   2.197   0.000   2.740
  Fe              4   up:     0.331   0.194   4.516   0.000   5.041     0.250        2.333
                  4   dn:     0.305   0.225   2.178   0.000   2.709
  Fe              5   up:     0.332   0.241   4.573   0.000   5.146     0.029        2.321
                  5   dn:     0.356   0.399   2.071   0.000   2.825
  Fe              6   up:     0.339   0.227   4.563   0.000   5.129     0.036        2.294
                  6   dn:     0.362   0.387   2.086   0.000   2.835
  Fe              7   up:     0.332   0.207   4.539   0.000   5.079     0.235        2.393
                  7   dn:     0.304   0.235   2.147   0.000   2.686
  Fe              8   up:     0.332   0.197   4.518   0.000   5.047     0.245        2.339
                  8   dn:     0.306   0.226   2.175   0.000   2.708
  Fe              9   up:     0.338   0.222   4.559   0.000   5.119     0.048        2.287
                  9   dn:     0.361   0.378   2.093   0.000   2.833
  Fe             10   up:     0.340   0.228   4.565   0.000   5.133     0.038        2.304
                 10   dn:     0.361   0.385   2.083   0.000   2.829
  Fe             11   up:     0.326   0.196   4.478   0.000   5.000     0.218        2.218
                 11   dn:     0.305   0.242   2.236   0.000   2.782
  Fe             12   up:     0.333   0.237   4.570   0.000   5.141     0.032        2.313
                 12   dn:     0.357   0.396   2.074   0.000   2.827
  Fe             13   up:     0.327   0.232   4.550   0.000   5.108     0.238        2.455
                 13   dn:     0.294   0.236   2.123   0.000   2.653
  Fe             14   up:     0.345   0.264   4.585   0.000   5.194    -0.029        2.359
                 14   dn:     0.362   0.416   2.057   0.000   2.835
  Fe             15   up:     0.292   0.170   4.407   0.000   4.869     0.299        2.037
                 15   dn:     0.276   0.203   2.353   0.000   2.832
  Fe             16   up:     0.332   0.198   4.580   0.000   5.110     0.300        2.520
                 16   dn:     0.297   0.207   2.085   0.000   2.590
  Fe             17   up:     0.335   0.233   4.570   0.000   5.137     0.036        2.309
                 17   dn:     0.358   0.391   2.078   0.000   2.827
  Fe             18   up:     0.343   0.225   4.575   0.000   5.142     0.043        2.328
                 18   dn:     0.361   0.383   2.070   0.000   2.814
  Fe             19   up:     0.329   0.198   4.474   0.000   5.000     0.210        2.210
                 19   dn:     0.309   0.235   2.246   0.000   2.790
  Fe             20   up:     0.329   0.203   4.576   0.000   5.108     0.294        2.510
                 20   dn:     0.295   0.207   2.096   0.000   2.598
  Fe             21   up:     0.335   0.239   4.559   0.000   5.132     0.017        2.282
                 21   dn:     0.360   0.399   2.092   0.000   2.851
  Fe             22   up:     0.341   0.224   4.575   0.000   5.139     0.052        2.331
                 22   dn:     0.358   0.382   2.068   0.000   2.809
  Fe             23   up:     0.281   0.151   4.424   0.000   4.856     0.348        2.059
                 23   dn:     0.266   0.186   2.344   0.000   2.797
  Fe             24   up:     0.334   0.230   4.577   0.000   5.141     0.044        2.326
                 24   dn:     0.356   0.389   2.069   0.000   2.815
  Fe             25   up:     0.333   0.223   4.558   0.000   5.114     0.033        2.261
                 25   dn:     0.361   0.387   2.105   0.000   2.853
  Fe             26   up:     0.407   0.254   4.657   0.000   5.318    -0.035        2.602
                 26   dn:     0.387   0.330   1.999   0.000   2.716
  Fe             27   up:     0.332   0.221   4.558   0.000   5.111     0.040        2.262
                 27   dn:     0.360   0.384   2.105   0.000   2.849
  Fe             28   up:     0.333   0.223   4.562   0.000   5.119     0.032        2.269
                 28   dn:     0.361   0.389   2.099   0.000   2.849
  Fe             29   up:     0.407   0.256   4.661   0.000   5.324    -0.032        2.616
                 29   dn:     0.386   0.329   1.993   0.000   2.708
  Fe             30   up:     0.407   0.257   4.660   0.000   5.324    -0.035        2.613
                 30   dn:     0.386   0.331   1.994   0.000   2.711
  Fe             31   up:     0.333   0.221   4.556   0.000   5.109     0.036        2.254
                 31   dn:     0.361   0.386   2.108   0.000   2.855
  Fe             32   up:     0.333   0.221   4.559   0.000   5.114     0.036        2.264
                 32   dn:     0.361   0.386   2.103   0.000   2.850
  Fe             33   up:     0.405   0.257   4.660   0.000   5.323    -0.034        2.611
                 33   dn:     0.386   0.331   1.995   0.000   2.711
  Fe             34   up:     0.407   0.256   4.658   0.000   5.321    -0.035        2.608
                 34   dn:     0.386   0.330   1.997   0.000   2.713
  Fe             35   up:     0.332   0.221   4.557   0.000   5.110     0.039        2.259
                 35   dn:     0.361   0.384   2.106   0.000   2.851
  Fe             36   up:     0.407   0.257   4.662   0.000   5.325    -0.033        2.618
                 36   dn:     0.386   0.330   1.992   0.000   2.708
  Fe             37   up:     0.331   0.221   4.561   0.000   5.113     0.041        2.268
                 37   dn:     0.360   0.385   2.100   0.000   2.845
  Fe             38   up:     0.408   0.256   4.658   0.000   5.322    -0.034        2.610
                 38   dn:     0.386   0.328   1.998   0.000   2.712
  Fe             39   up:     0.333   0.221   4.556   0.000   5.110     0.037        2.257
                 39   dn:     0.361   0.384   2.107   0.000   2.853
  Fe             40   up:     0.331   0.224   4.563   0.000   5.117     0.037        2.272
                 40   dn:     0.359   0.390   2.097   0.000   2.846
  Fe             41   up:     0.405   0.257   4.659   0.000   5.321    -0.033        2.610
                 41   dn:     0.386   0.330   1.995   0.000   2.712
  Fe             42   up:     0.407   0.256   4.658   0.000   5.322    -0.035        2.609
                 42   dn:     0.386   0.330   1.997   0.000   2.713
  Fe             43   up:     0.333   0.219   4.561   0.000   5.113     0.038        2.264
                 43   dn:     0.362   0.383   2.104   0.000   2.849
  Fe             44   up:     0.331   0.224   4.561   0.000   5.116     0.038        2.270
                 44   dn:     0.359   0.389   2.098   0.000   2.846
  Fe             45   up:     0.405   0.259   4.664   0.000   5.328    -0.036        2.620
                 45   dn:     0.386   0.332   1.989   0.000   2.708
  Fe             46   up:     0.408   0.256   4.659   0.000   5.323    -0.033        2.613
                 46   dn:     0.386   0.328   1.996   0.000   2.710
  Fe             47   up:     0.333   0.221   4.557   0.000   5.111     0.036        2.258
                 47   dn:     0.362   0.385   2.106   0.000   2.853
  Fe             48   up:     0.406   0.257   4.660   0.000   5.323    -0.035        2.610
                 48   dn:     0.386   0.332   1.994   0.000   2.712
==============================================================================================
 
                 Bond                   Population        Spin       Length (A)
================================================================================
              H 3  -- Fe 1                   0.22         0.02          1.53872
              H 3  -- Fe 23                  0.12         0.02          1.58374
              H 2  -- Fe 15                  0.43         0.01          1.59478
              H 4  -- Fe 11                  0.42         0.01          1.61522
              H 1  -- H 4                    0.03         0.02          1.62439
              H 1  -- Fe 23                  0.40         0.01          1.63077
              H 6  -- Fe 3                   0.38         0.01          1.65277
              H 3  -- Fe 15                  0.11         0.01          1.66013
              H 7  -- Fe 1                   0.33         0.01          1.69231
              H 13 -- Fe 19                  0.34         0.02          1.69817
[...]
             Fe 9  -- Fe 32                  0.20        -0.00          2.45597
             Fe 14 -- Fe 39                  0.21        -0.00          2.45607
             Fe 28 -- Fe 31                  0.24        -0.02          2.45645
             Fe 35 -- Fe 44                  0.24        -0.02          2.45652
             Fe 44 -- Fe 47                  0.24        -0.02          2.45670
             Fe 22 -- Fe 47                  0.19        -0.00          2.45684
             Fe 27 -- Fe 40                  0.24        -0.02          2.45690
             Fe 16 -- Fe 21                  0.13        -0.01          2.45692
             Fe 7  -- Fe 20                  0.13        -0.01          2.45724
              H 10 -- H 11                   0.01         0.00          2.45733
             Fe 28 -- Fe 39                  0.24        -0.02          2.45748
             Fe 2  -- Fe 3                   0.14        -0.02          2.45752
             Fe 9  -- Fe 18                  0.25        -0.01          2.45798
             Fe 12 -- Fe 25                  0.20        -0.00          2.45816
             Fe 12 -- Fe 22                  0.25        -0.01          2.45837
             Fe 32 -- Fe 33                  0.02         0.03          2.45859
             Fe 11 -- Fe 20                  0.19        -0.04          2.45865
             Fe 10 -- Fe 12                  0.25        -0.01          2.45869
             Fe 32 -- Fe 47                  0.24        -0.01          2.45877
             Fe 30 -- Fe 31                  0.02         0.03          2.45883
             Fe 22 -- Fe 24                  0.24        -0.01          2.45927
             Fe 5  -- Fe 18                  0.24        -0.01          2.45927
             Fe 26 -- Fe 27                  0.02         0.03          2.45947
              H 11 -- H 12                   0.01         0.00          2.45985
             Fe 18 -- Fe 43                  0.20        -0.00          2.46032
             Fe 10 -- Fe 11                  0.13        -0.02          2.46101
             Fe 38 -- Fe 39                  0.02         0.03          2.46105
             Fe 46 -- Fe 47                  0.02         0.03          2.46114
             Fe 34 -- Fe 35                  0.02         0.03          2.46115
             Fe 28 -- Fe 29                  0.02         0.03          2.46134
             Fe 6  -- Fe 7                   0.13        -0.01          2.46194
             Fe 16 -- Fe 19                  0.12        -0.02          2.46224
             Fe 17 -- Fe 18                  0.27        -0.02          2.46234
             Fe 6  -- Fe 31                  0.20        -0.00          2.46303
             Fe 3  -- Fe 16                  0.15        -0.02          2.46303
             Fe 9  -- Fe 22                  0.25        -0.01          2.46320
             Fe 25 -- Fe 36                  0.02         0.03          2.46381
             Fe 5  -- Fe 6                   0.25        -0.01          2.46450
             Fe 37 -- Fe 48                  0.03         0.02          2.46607
             Fe 10 -- Fe 35                  0.21        -0.00          2.46678
             Fe 40 -- Fe 41                  0.03         0.02          2.46745
             Fe 44 -- Fe 45                  0.03         0.03          2.46810
             Fe 5  -- Fe 14                  0.23        -0.01          2.46841
             Fe 4  -- Fe 5                   0.13        -0.01          2.46868
             Fe 9  -- Fe 28                  0.21        -0.00          2.46909
             Fe 3  -- Fe 13                  0.14        -0.02          2.46930
             Fe 2  -- Fe 27                  0.21        -0.00          2.47053
              H 2  -- Fe 16                  0.02        -0.01          2.47164
             Fe 20 -- Fe 24                  0.13        -0.02          2.47202
             Fe 16 -- Fe 17                  0.11        -0.01          2.47230
             Fe 21 -- Fe 44                  0.21        -0.01          2.47259
             Fe 24 -- Fe 37                  0.21        -0.00          2.47271
             Fe 14 -- Fe 47                  0.21        -0.00          2.47302
             Fe 18 -- Fe 39                  0.20        -0.00          2.47388
             Fe 5  -- Fe 28                  0.21        -0.00          2.47396
              H 5  -- H 7                    0.01         0.00          2.47424
             Fe 12 -- Fe 14                  0.22        -0.01          2.47578
             Fe 5  -- Fe 25                  0.21        -0.00          2.47596
             Fe 22 -- Fe 43                  0.21        -0.00          2.47618
             Fe 19 -- Fe 20                  0.13        -0.02          2.47853
             Fe 2  -- Fe 35                  0.21        -0.00          2.47910
             Fe 17 -- Fe 40                  0.21        -0.00          2.47966
              H 7  -- H 8                    0.01         0.00          2.47998
              H 10 -- H 14                   0.00         0.00          2.48035
             Fe 6  -- Fe 27                  0.21        -0.00          2.48157
             Fe 11 -- Fe 13                  0.18        -0.03          2.48186
             Fe 10 -- Fe 31                  0.21        -0.00          2.48226
             Fe 12 -- Fe 32                  0.21        -0.00          2.48279
              H 9  -- H 10                   0.01         0.00          2.48319
             Fe 14 -- Fe 23                  0.13        -0.01          2.48466
             Fe 17 -- Fe 37                  0.22        -0.00          2.48582
             Fe 1  -- Fe 5                   0.18        -0.02          2.48647
             Fe 21 -- Fe 40                  0.21        -0.00          2.48955
             Fe 13 -- Fe 17                  0.14        -0.01          2.49123
              H 3  -- Fe 14                  0.04         0.00          2.49225
             Fe 13 -- Fe 15                  0.22        -0.05          2.49803
             Fe 24 -- Fe 44                  0.22        -0.01          2.49831
             Fe 1  -- Fe 12                  0.17        -0.02          2.50075
             Fe 13 -- Fe 23                  0.15        -0.04          2.50288
             Fe 1  -- Fe 23                 -0.10        -0.01          2.50610
             Fe 20 -- Fe 21                  0.14        -0.01          2.51250
             Fe 13 -- Fe 24                  0.11        -0.01          2.51282
             Fe 14 -- Fe 15                  0.16        -0.02          2.51522
              H 10 -- H 13                   0.01         0.00          2.51890
             Fe 1  -- Fe 15                 -0.11        -0.00          2.52090
              H 2  -- H 8                    0.01         0.00          2.56400
              H 3  -- Fe 13                  0.04        -0.00          2.57417
              H 13 -- Fe 8                   0.00        -0.00          2.58447
              H 5  -- Fe 11                  0.01        -0.00          2.61924
              H 8  -- Fe 3                   0.01        -0.00          2.63242
              H 9  -- Fe 4                  -0.01         0.00          2.63835
              H 7  -- Fe 13                  0.01        -0.00          2.65128
              H 6  -- H 9                   -0.00         0.00          2.67188
              H 11 -- Fe 16                 -0.00        -0.00          2.69555
              H 14 -- Fe 20                 -0.01        -0.00          2.71071
              H 9  -- H 13                   0.01         0.00          2.71201
              H 4  -- H 10                   0.01         0.00          2.73046
              H 10 -- Fe 19                 -0.00        -0.00          2.73397
              H 12 -- Fe 7                  -0.01        -0.00          2.73399
              H 8  -- H 12                   0.00         0.00          2.74284
              H 5  -- H 12                   0.00         0.00          2.75369
             Fe 15 -- Fe 19                  0.07        -0.01          2.76332
              H 2  -- Fe 23                 -0.02        -0.00          2.76906
             Fe 4  -- Fe 8                   0.09        -0.02          2.77027
              H 1  -- H 5                    0.01         0.00          2.77336
             Fe 19 -- Fe 23                  0.08        -0.02          2.78521
              H 4  -- H 13                  -0.01        -0.00          2.78620
             Fe 19 -- Fe 21                  0.00         0.02          2.79102
             Fe 7  -- Fe 21                  0.03         0.01          2.79603
             Fe 9  -- Fe 19                  0.01         0.02          2.79643
             Fe 4  -- Fe 6                  -0.00         0.02          2.79847
             Fe 8  -- Fe 10                  0.01         0.02          2.79964
              H 11 -- H 14                   0.00         0.00          2.80640
             Fe 3  -- Fe 17                  0.03         0.02          2.80973
             Fe 43 -- Fe 45                 -0.07         0.02          2.81428
              H 6  -- H 10                   0.01         0.00          2.81437
             Fe 47 -- Fe 48                 -0.07         0.02          2.81461
             Fe 39 -- Fe 41                 -0.07         0.02          2.81502
             Fe 1  -- Fe 2                  -0.00         0.02          2.81729
             Fe 11 -- Fe 24                  0.01         0.02          2.81784
             Fe 12 -- Fe 23                  0.07         0.00          2.81807
             Fe 9  -- Fe 31                  0.05         0.01          2.81819
             Fe 13 -- Fe 20                 -0.04        -0.00          2.81880
             Fe 17 -- Fe 24                  0.18        -0.02          2.81978
             Fe 13 -- Fe 16                  0.02        -0.01          2.82051
             Fe 5  -- Fe 15                  0.06         0.00          2.82059
             Fe 5  -- Fe 12                  0.13        -0.01          2.82167
             Fe 39 -- Fe 47                  0.08         0.00          2.82174
             Fe 32 -- Fe 34                 -0.07         0.02          2.82274
             Fe 32 -- Fe 46                 -0.07         0.02          2.82276
             Fe 28 -- Fe 42                 -0.07         0.02          2.82310
             Fe 28 -- Fe 30                 -0.07         0.02          2.82374
             Fe 3  -- Fe 7                   0.08        -0.02          2.82454
             Fe 10 -- Fe 44                  0.05         0.01          2.82518
             Fe 29 -- Fe 36                  0.36        -0.04          2.82554
             Fe 14 -- Fe 37                  0.04         0.01          2.82559
             Fe 27 -- Fe 35                  0.08         0.00          2.82589
             Fe 2  -- Fe 10                  0.16        -0.01          2.82600
             Fe 6  -- Fe 40                  0.04         0.01          2.82674
             Fe 40 -- Fe 44                  0.08         0.00          2.82730
             Fe 6  -- Fe 10                  0.15        -0.01          2.82840
             Fe 12 -- Fe 35                  0.04         0.01          2.82848
             Fe 3  -- Fe 5                  -0.03         0.02          2.82914
             Fe 31 -- Fe 45                 -0.07         0.02          2.82915
             Fe 33 -- Fe 43                 -0.07         0.02          2.82931
             Fe 35 -- Fe 48                 -0.07         0.02          2.82936
             Fe 7  -- Fe 11                  0.08        -0.02          2.82936
             Fe 25 -- Fe 26                 -0.07         0.02          2.83023
             Fe 26 -- Fe 37                 -0.07         0.02          2.83046
             Fe 25 -- Fe 28                  0.08         0.00          2.83089
             Fe 25 -- Fe 32                  0.08         0.00          2.83102
             Fe 27 -- Fe 41                 -0.07         0.02          2.83105
             Fe 26 -- Fe 34                  0.36        -0.04          2.83115
             Fe 26 -- Fe 30                  0.36        -0.04          2.83116
             Fe 38 -- Fe 42                  0.37        -0.04          2.83158
             Fe 41 -- Fe 48                  0.36        -0.04          2.83159
             Fe 38 -- Fe 46                  0.37        -0.04          2.83163
             Fe 14 -- Fe 22                  0.11        -0.00          2.83200
             Fe 25 -- Fe 38                 -0.07         0.02          2.83221
             Fe 31 -- Fe 33                 -0.07         0.02          2.83262
             Fe 2  -- Fe 37                  0.04         0.01          2.83265
             Fe 30 -- Fe 40                 -0.07         0.02          2.83271
             Fe 18 -- Fe 28                  0.05         0.01          2.83309
             Fe 14 -- Fe 18                  0.13        -0.00          2.83313
             Fe 23 -- Fe 24                  0.03         0.02          2.83346
             Fe 41 -- Fe 45                  0.36        -0.04          2.83357
             Fe 45 -- Fe 48                  0.36        -0.04          2.83361
             Fe 34 -- Fe 44                 -0.07         0.02          2.83364
             Fe 5  -- Fe 27                  0.04         0.01          2.83365
             Fe 18 -- Fe 22                  0.16        -0.01          2.83385
             Fe 22 -- Fe 32                  0.05         0.01          2.83431
             Fe 22 -- Fe 44                  0.05         0.01          2.83449
             Fe 37 -- Fe 44                  0.08         0.00          2.83548
             Fe 42 -- Fe 46                  0.36        -0.04          2.83556
             Fe 35 -- Fe 36                 -0.07         0.02          2.83565
             Fe 37 -- Fe 40                  0.08         0.00          2.83599
             Fe 27 -- Fe 29                 -0.07         0.02          2.83621
             Fe 31 -- Fe 35                  0.08         0.00          2.83625
             Fe 30 -- Fe 34                  0.36        -0.04          2.83646
             Fe 29 -- Fe 33                  0.36        -0.04          2.83660
             Fe 33 -- Fe 36                  0.36        -0.04          2.83662
             Fe 27 -- Fe 31                  0.08         0.01          2.83663
             Fe 11 -- Fe 12                 -0.04         0.02          2.83682
             Fe 28 -- Fe 32                  0.07         0.01          2.83687
             Fe 36 -- Fe 47                 -0.07         0.02          2.83707
             Fe 18 -- Fe 40                  0.05         0.01          2.83707
             Fe 9  -- Fe 12                  0.15        -0.01          2.83785
             Fe 29 -- Fe 39                 -0.07         0.02          2.83788
             Fe 43 -- Fe 47                  0.07         0.00          2.83837
             Fe 39 -- Fe 43                  0.07         0.00          2.83867
             Fe 17 -- Fe 21                  0.13        -0.01          2.83920
             Fe 5  -- Fe 9                   0.14        -0.01          2.83939
             Fe 21 -- Fe 24                  0.16        -0.01          2.83981
              H 7  -- H 11                   0.00        -0.00          2.84330
             Fe 2  -- Fe 6                   0.16        -0.01          2.84439
             Fe 3  -- Fe 11                  0.09        -0.02          2.84545
             Fe 40 -- Fe 42                 -0.07         0.02          2.84561
             Fe 44 -- Fe 46                 -0.07         0.02          2.84643
             Fe 15 -- Fe 17                  0.01         0.01          2.84646
             Fe 8  -- Fe 22                 -0.07         0.02          2.84694
             Fe 14 -- Fe 25                  0.04         0.01          2.84889
              H 7  -- H 14                   0.00        -0.00          2.84991
             Fe 37 -- Fe 38                 -0.07         0.02          2.85257
             Fe 4  -- Fe 18                 -0.07         0.03          2.85327
             Fe 1  -- Fe 8                   0.09        -0.02          2.85810
             Fe 9  -- Fe 43                  0.04         0.01          2.85843
             Fe 16 -- Fe 20                  0.11        -0.02          2.86025
             Fe 16 -- Fe 18                 -0.02         0.02          2.86196
             Fe 12 -- Fe 47                  0.03         0.01          2.86355
             Fe 17 -- Fe 39                  0.03         0.01          2.86387
             Fe 5  -- Fe 39                  0.03         0.01          2.86470
             Fe 21 -- Fe 43                  0.03         0.01          2.86589
             Fe 6  -- Fe 16                 -0.04         0.02          2.86616
             Fe 24 -- Fe 47                  0.03         0.01          2.86715
             Fe 2  -- Fe 25                  0.04         0.01          2.86917
             Fe 17 -- Fe 27                  0.03         0.01          2.87066
             Fe 6  -- Fe 28                  0.03         0.01          2.87079
             Fe 1  -- Fe 4                   0.09        -0.03          2.87253
             Fe 7  -- Fe 9                  -0.05         0.02          2.87322
             Fe 10 -- Fe 32                  0.03         0.01          2.87468
             Fe 24 -- Fe 35                  0.03         0.01          2.87477
             Fe 21 -- Fe 31                  0.03         0.01          2.87850
             Fe 13 -- Fe 14                 -0.00         0.01          2.87933
              H 6  -- Fe 15                 -0.10         0.00          2.88366
             Fe 20 -- Fe 22                 -0.05         0.02          2.88464
             Fe 10 -- Fe 20                 -0.05         0.02          2.89106
             Fe 2  -- Fe 13                 -0.08         0.02          2.90278
              H 13 -- Fe 22                 -0.16         0.02          2.93005
             Fe 1  -- Fe 14                 -0.01         0.02          2.93504
              H 9  -- Fe 18                 -0.17         0.02          2.94847
             Fe 15 -- Fe 23                 -0.09        -0.02          2.95153
              H 8  -- Fe 5                  -0.15         0.02          2.95462
              H 5  -- Fe 12                 -0.15         0.02          2.96135
              H 7  -- Fe 2                  -0.16         0.02          2.96204
              H 11 -- Fe 6                  -0.16         0.02          2.96676
              H 10 -- Fe 21                 -0.15         0.02          2.97084
              H 14 -- Fe 10                 -0.16         0.02          2.97108
              H 12 -- Fe 9                  -0.17         0.02          2.97320
              H 1  -- Fe 11                 -0.16         0.01          2.98018
              H 4  -- H 6                    0.01         0.00          2.98331
              H 3  -- H 7                   -0.01        -0.00          2.98791
================================================================================
 

Writing analysis data to neb-calc_1-3.castep_bin

Writing model to neb-calc_1-3.check
 
 A BibTeX formatted list of references used in this run has been written to 
 neb-calc_1-3.bib
 
Initialisation time =     10.20 s
Calculation time    =  20376.98 s
Finalisation time   =      6.46 s
Total time          =  20393.63 s
Peak Memory Use     = 2083268 kB
  
Overall parallel efficiency rating: Very good (89%)                             
  
Data was distributed by:-
G-vector (16-way); efficiency rating: Excellent (90%)                           
k-point (8-way); efficiency rating: Excellent (99%)                             
