 +-------------------------------------------------+
 |                                                 |
 |      CCC   AA    SSS  TTTTT  EEEEE  PPPP        |
 |     C     A  A  S       T    E      P   P       |
 |     C     AAAA   SS     T    EEE    PPPP        |
 |     C     A  A     S    T    E      P           |
 |      CCC  A  A  SSS     T    EEEEE  P           |
 |                                                 |
 +-------------------------------------------------+
 |                                                 |
 | Welcome to Academic Release CASTEP version 21.11|          
 | Ab Initio Total Energy Program                  |
 |                                                 |
 | Authors:                                        |
 | M. Segall, M. Probert, C. Pickard, P. Hasnip,   |
 | S. Clark, K. Refson, J. R. Yates, M. Payne      |
 |                                                 |
 | Contributors:                                   |
 | P. Lindan, P. Haynes, J. White, V. Milman,      |
 | N. Govind, M. Gibson, P. Tulip, V. Cocula,      |
 | B. Montanari, D. Quigley, M. Glover,            |
 | L. Bernasconi, A. Perlov, M. Plummer,           |
 | E. McNellis, J. Meyer, J. Gale, D. Jochym       |
 | J. Aarons, B. Walker, R. Gillen, D. Jones       |
 | T. Green, I. J. Bush, C. J. Armstrong,          |
 | E. J. Higgins, E. L. Brown, M. S. McFly,        |
 | J. Wilkins, B-C. Shih, P. J. P. Byrne,          |
 | R. J. Maurer, J. C. Womack, J. Dziedzic,        |
 | A. Bartok-Partay, L. LeBlanc                    |
 |                                                 |
 | Copyright (c) 2000 - 2021                       |
 |                                                 |
 |     Distributed under license from Cambridge    |
 |     Enterprise for academic use only.           |
 |                                                 |
 | Please cite                                     |
 |                                                 |
 |     "First principles methods using CASTEP"     |
 |                                                 |
 |         Zeitschrift fuer Kristallographie       |
 |           220(5-6) pp. 567-570 (2005)           |
 |                                                 |
 | S. J. Clark, M. D. Segall, C. J. Pickard,       |
 | P. J. Hasnip, M. J. Probert, K. Refson,         |
 | M. C. Payne                                     |
 |                                                 |
 |       in all publications arising from          |
 |              your use of CASTEP                 |
 |                                                 |
 +-------------------------------------------------+
 |                                                 |
 |              http://www.castep.org              |
 |                                                 |
 +-------------------------------------------------+
 
 
 
 Compiled for linux_x86_64_cray-XT on Tue, 01 Mar 2022 09:19:15 +0000
 from code version 7d4405a8a+  HEAD  Sat Nov 27 13:38:33 2021 +0000
 Compiler: Cray Fortran 12.0.3; Optimisation: fast
 MATHLIBS: LibSci (LAPACK version 3.6.1)
 FFT Lib : fftw3 version commercial-fftw-3.3.8-sse2-avx-avx2-avx2_128
 Fundamental constants values: CODATA 2014
 
 Run started: Mon, 27 Jun 2022 07:22:40 -0100
 Warning in parameters_read: presetting of magnetic moments on atoms cannot be guaranteed when metals_method /= density mixing
 
 Atomic calculation performed for H: 1s1
 
 Converged in 41 iterations to an ae energy of -12.488 eV
 
   ============================================================                
   | Pseudopotential Report - Date of generation 27-06-2022   |                
   ------------------------------------------------------------                
   | Element: H Ionic charge:  1.00 Level of theory: PBE      |                
   | Atomic Solver: Koelling-Harmon                           |                
   |                                                          |                
   |               Reference Electronic Structure             |                
   |         Orbital         Occupation         Energy        |                
   |            1s              1.000           -0.239        |                
   |                                                          |                
   |                 Pseudopotential Definition               |                
   |        Beta     l      e      Rc     scheme   norm       |                
   |          1      0   -0.239   0.599     qc      0         |                
   |          2      0    0.250   0.599     qc      0         |                
   |         loc     1    0.000   0.599     pn      0         |                
   |                                                          |                
   | Augmentation charge Rinner = 0.421                       |                
   | No partial core correction                               |                
   ------------------------------------------------------------                
   | "1|0.6|13|15|17|10(qc=8)"                                |                
   ------------------------------------------------------------                
   |      Author: Chris J. Pickard, Cambridge University      |                
   ============================================================                
 
 Atomic calculation performed for Fe: 1s2 2s2 2p6 3s2 3p6 3d6 4s2
 
 Converged in 96 iterations to an ae energy of -34625.101 eV
 
   ============================================================                
   | Pseudopotential Report - Date of generation 27-06-2022   |                
   ------------------------------------------------------------                
   | Element: Fe Ionic charge:  8.00 Level of theory: PBE     |                
   | Atomic Solver: Koelling-Harmon                           |                
   |                                                          |                
   |               Reference Electronic Structure             |                
   |         Orbital         Occupation         Energy        |                
   |            3d              6.000           -0.276        |                
   |            4s              2.000           -0.194        |                
   |                                                          |                
   |                 Pseudopotential Definition               |                
   |        Beta     l      e      Rc     scheme   norm       |                
   |          1      0   -0.194   2.399     qc      0         |                
   |          2      0    0.250   2.399     qc      0         |                
   |          3      1    0.000   2.399     qc      0         |                
   |          4      1    0.250   2.399     qc      0         |                
   |          5      2   -0.276   1.997     qc      0         |                
   |          6      2    0.250   1.997     qc      0         |                
   |         loc     3    0.000   2.399     pn      0         |                
   |                                                          |                
   | Augmentation charge Rinner = 1.000                       |                
   | Partial core correction Rc = 1.000                       |                
   ------------------------------------------------------------                
   | "3|2.4|2.4|1.0|8|9|10|40:41:32U2U2(qc=5.5)"              |                
   ------------------------------------------------------------                
   |      Author: Chris J. Pickard, Cambridge University      |                
   ============================================================                
 
 Pseudo atomic calculation performed for H 1s1
 
 Converged in 16 iterations to a total energy of -12.4388 eV
 
 Pseudo atomic calculation performed for Fe 3d6 4s2
 
 Converged in 39 iterations to a total energy of -853.7730 eV
 Calculation parallelised over 128 processes.
 Data is distributed by G-vector(16-way) and k-point(8-way)

 ************************************ Title ************************************
 

 ***************************** General Parameters ******************************
  
 output verbosity                               : normal  (1)
 write checkpoint data to                       : neb-calc_1-6.check
 type of calculation                            : single point energy
 stress calculation                             : on
 density difference calculation                 : off
 electron localisation func (ELF) calculation   : off
 Hirshfeld analysis                             : off
 polarisation (Berry phase) analysis            : off
 molecular orbital projected DOS                : off
 deltaSCF calculation                           : off
 unlimited duration calculation
 timing information                             : on
 memory usage estimate                          : on
 write extra output files                       : on
 write final potential to formatted file        : off
 write final density to formatted file          : off
 write BibTeX reference list                    : on
 write OTFG pseudopotential files               : on
 write electrostatic potential file             : on
 write bands file                               : on
 checkpoint writing                             : both castep_bin and check files
  
 output         length unit                     : A
 output           mass unit                     : amu
 output           time unit                     : ps
 output         charge unit                     : e
 output           spin unit                     : hbar/2
 output         energy unit                     : eV
 output          force unit                     : eV/A
 output       velocity unit                     : A/ps
 output       pressure unit                     : GPa
 output     inv_length unit                     : 1/A
 output      frequency unit                     : cm-1
 output force constant unit                     : eV/A**2
 output         volume unit                     : A**3
 output   IR intensity unit                     : (D/A)**2/amu
 output         dipole unit                     : D
 output         efield unit                     : eV/A/e
 output        entropy unit                     : J/mol/K
 output    efield chi2 unit                     : pm/V
  
 wavefunctions paging                           : none
 random number generator seed                   : randomised (72240636)
 data distribution                              : optimal for this architecture
 optimization strategy                          : balance speed and memory

 *********************** Exchange-Correlation Parameters ***********************
  
 using functional                               : Perdew Burke Ernzerhof
 relativistic treatment                         : Koelling-Harmon
 DFT+D: Semi-empirical dispersion correction    : off

 ************************* Pseudopotential Parameters **************************
  
 pseudopotential representation                 : reciprocal space
 <beta|phi> representation                      : reciprocal space
 spin-orbit coupling                            : off

 **************************** Basis Set Parameters *****************************
  
 plane wave basis set cut-off                   :   400.0000   eV
 size of standard grid                          :     1.7500
 size of   fine   gmax                          :    17.9311   1/A
 finite basis set correction                    : automatic
 number of sample energies                      :          3
           sample  spacing                      :     5.0000   eV

 **************************** Electronic Parameters ****************************
  
 number of  electrons                           :  398.0    
 net charge of system                           :  0.000    
 net spin   of system                           :  120.0    
 number of  up  spins                           :  259.0    
 number of down spins                           :  139.0    
 treating system as spin-polarized
 number of bands                                :       1036
 electron temperature                           :     0.0000   K

 ********************* Electronic Minimization Parameters **********************
  
 Method: Treating system as metallic with ensemble DFT treatment of electrons,
         and number of  SD  steps               :          1
         and number of  CG  steps               :          4
  
 total energy / atom convergence tol.           : 0.1000E-06   eV
 max force / atom convergence tol.              : ignored
 convergence tolerance window                   :          3   cycles
 max. number of SCF cycles                      :        200
 number of fixed-spin iterations                :         10
 smearing scheme                                : Gaussian
 smearing width                                 : 0.2000       eV
 Fermi energy convergence tolerance             : 0.2721E-13   eV
 number of occupancy cycles                     :          6
 periodic dipole correction                     : NONE

 *********************** Population Analysis Parameters ************************
  
 Population analysis with cutoff                :  3.000       A
 Population analysis output                     : summary and pdos components

 *******************************************************************************
  
 
                           -------------------------------
                                      Unit Cell
                           -------------------------------
        Real Lattice(A)                      Reciprocal Lattice(1/A)
     8.0127110     0.0000000     0.0000000        0.784152244   0.000000000   0.000000000
     0.0000000     8.4987630     0.0000000        0.000000000   0.739305862   0.000000000
     0.0000000     0.0000000    18.0000000        0.000000000   0.000000000   0.349065850
 
                       Lattice parameters(A)       Cell Angles
                    a =      8.012711          alpha =   90.000000
                    b =      8.498763          beta  =   90.000000
                    c =     18.000000          gamma =   90.000000
 
                       Current cell volume =          1225.766372       A**3
                                   density =             2.198356   AMU/A**3
                                           =             3.650456     g/cm^3
 
                           -------------------------------
                                     Cell Contents
                           -------------------------------
                         Total number of ions in cell =   62
                      Total number of species in cell =    2
                        Max number of any one species =   48
 
            xxxxxxxxxxxxxxxxxxxxxxxxxxxxxxxxxxxxxxxxxxxxxxxxxxxxxxxxxxxx
            x  Element    Atom        Fractional coordinates of atoms  x
            x            Number           u          v          w      x
            x----------------------------------------------------------x
            x  H            1         0.351068   0.423604   0.226141   x 
            x  H            2         0.419195   0.647364   0.220875   x 
            x  H            3         0.606519   0.567233   0.289868   x 
            x  H            4         0.157874   0.367879   0.216529   x 
            x  H            5         0.704839   0.403974   0.226576   x 
            x  H            6         0.188149   0.747018   0.225933   x 
            x  H            7         0.958723   0.578877   0.225305   x 
            x  H            8         0.703406   0.753280   0.226939   x 
            x  H            9         0.456723   0.913320   0.229746   x 
            x  H           10         0.204567   0.075621   0.227708   x 
            x  H           11         0.949947   0.911531   0.227957   x 
            x  H           12         0.697699   0.076201   0.229659   x 
            x  H           13         0.466434   0.235839   0.231203   x 
            x  H           14         0.942062   0.242816   0.227653   x 
            x  Fe           1         0.784110   0.578470   0.271832   x 
            x  Fe           2         0.014477   0.574667   0.389899   x 
            x  Fe           3         0.016937   0.744572   0.279107   x 
            x  Fe           4         0.769562   0.912399   0.279943   x 
            x  Fe           5         0.764959   0.741037   0.390685   x 
            x  Fe           6         0.014687   0.910041   0.390525   x 
            x  Fe           7         0.018910   0.076860   0.278692   x 
            x  Fe           8         0.767043   0.241448   0.280272   x 
            x  Fe           9         0.765320   0.075897   0.391636   x 
            x  Fe          10         0.015287   0.242310   0.390319   x 
            x  Fe          11         0.016127   0.409762   0.277886   x 
            x  Fe          12         0.765319   0.409044   0.391060   x 
            x  Fe          13         0.267351   0.579663   0.276723   x 
            x  Fe          14         0.507971   0.576576   0.393677   x 
            x  Fe          15         0.519502   0.751629   0.279659   x 
            x  Fe          16         0.267840   0.909953   0.278522   x 
            x  Fe          17         0.263072   0.742703   0.390260   x 
            x  Fe          18         0.514875   0.909233   0.392084   x 
            x  Fe          19         0.518711   0.074523   0.282277   x 
            x  Fe          20         0.268668   0.245117   0.275821   x 
            x  Fe          21         0.264854   0.075920   0.389733   x 
            x  Fe          22         0.514315   0.242572   0.391677   x 
            x  Fe          23         0.516628   0.405309   0.278540   x 
            x  Fe          24         0.263438   0.409399   0.389682   x 
            x  Fe          25         0.762431   0.574259   0.503768   x 
            x  Fe          26         0.013617   0.572194   0.614439   x 
            x  Fe          27         0.012449   0.740601   0.503058   x 
            x  Fe          28         0.762757   0.907658   0.503775   x 
            x  Fe          29         0.763506   0.738429   0.615185   x 
            x  Fe          30         0.013492   0.905319   0.614434   x 
            x  Fe          31         0.012679   0.074384   0.503313   x 
            x  Fe          32         0.762762   0.241068   0.503850   x 
            x  Fe          33         0.763513   0.072195   0.615040   x 
            x  Fe          34         0.013491   0.239068   0.614436   x 
            x  Fe          35         0.012534   0.408055   0.503113   x 
            x  Fe          36         0.763503   0.405964   0.615186   x 
            x  Fe          37         0.261842   0.574284   0.503084   x 
            x  Fe          38         0.513228   0.572197   0.615235   x 
            x  Fe          39         0.512271   0.740974   0.504372   x 
            x  Fe          40         0.262389   0.908307   0.503118   x 
            x  Fe          41         0.263358   0.738786   0.614244   x 
            x  Fe          42         0.513385   0.905373   0.614899   x 
            x  Fe          43         0.512606   0.074611   0.504164   x 
            x  Fe          44         0.262320   0.240524   0.502859   x 
            x  Fe          45         0.263377   0.072195   0.614466   x 
            x  Fe          46         0.513386   0.239016   0.614898   x 
            x  Fe          47         0.512250   0.407789   0.504105   x 
            x  Fe          48         0.263360   0.405608   0.614245   x 
            xxxxxxxxxxxxxxxxxxxxxxxxxxxxxxxxxxxxxxxxxxxxxxxxxxxxxxxxxxxx
 
 
                         No user defined ionic velocities
 
                           -------------------------------
                                   Details of Species
                           -------------------------------
 
                               Mass of species in AMU
                                    H    1.0079400
                                    Fe   55.8450000
 
                          Electric Quadrupole Moment (Barn)
                                    H    0.0028600 Isotope  2
                                    Fe    0.1600000 Isotope 57
         xxxxxxxxxxxxxxxxxxxxxxxxxxxxxxxxxxxxxxxxxxxxxxxxxxxxxxxxxxxxxxxxxxxxxx
         |  Element    Atom         Initial            Initial magnetic       |
         |            Number    spin polarization        moment (uB)     Fix? |
         |--------------------------------------------------------------------|
         | H              1         0.000000              0.000       F       |
         | H              2         0.000000              0.000       F       |
         | H              3         0.000000              0.000       F       |
         | H              4         0.000000              0.000       F       |
         | H              5         0.000000              0.000       F       |
         | H              6         0.000000              0.000       F       |
         | H              7         0.000000              0.000       F       |
         | H              8         0.000000              0.000       F       |
         | H              9         0.000000              0.000       F       |
         | H             10         0.000000              0.000       F       |
         | H             11         0.000000              0.000       F       |
         | H             12         0.000000              0.000       F       |
         | H             13         0.000000              0.000       F       |
         | H             14         0.000000              0.000       F       |
         | Fe             1         0.312500              2.500       F       |
         | Fe             2         0.312500              2.500       F       |
         | Fe             3         0.312500              2.500       F       |
         | Fe             4         0.312500              2.500       F       |
         | Fe             5         0.312500              2.500       F       |
         | Fe             6         0.312500              2.500       F       |
         | Fe             7         0.312500              2.500       F       |
         | Fe             8         0.312500              2.500       F       |
         | Fe             9         0.312500              2.500       F       |
         | Fe            10         0.312500              2.500       F       |
         | Fe            11         0.312500              2.500       F       |
         | Fe            12         0.312500              2.500       F       |
         | Fe            13         0.312500              2.500       F       |
         | Fe            14         0.312500              2.500       F       |
         | Fe            15         0.312500              2.500       F       |
         | Fe            16         0.312500              2.500       F       |
         | Fe            17         0.312500              2.500       F       |
         | Fe            18         0.312500              2.500       F       |
         | Fe            19         0.312500              2.500       F       |
         | Fe            20         0.312500              2.500       F       |
         | Fe            21         0.312500              2.500       F       |
         | Fe            22         0.312500              2.500       F       |
         | Fe            23         0.312500              2.500       F       |
         | Fe            24         0.312500              2.500       F       |
         | Fe            25         0.312500              2.500       F       |
         | Fe            26         0.312500              2.500       F       |
         | Fe            27         0.312500              2.500       F       |
         | Fe            28         0.312500              2.500       F       |
         | Fe            29         0.312500              2.500       F       |
         | Fe            30         0.312500              2.500       F       |
         | Fe            31         0.312500              2.500       F       |
         | Fe            32         0.312500              2.500       F       |
         | Fe            33         0.312500              2.500       F       |
         | Fe            34         0.312500              2.500       F       |
         | Fe            35         0.312500              2.500       F       |
         | Fe            36         0.312500              2.500       F       |
         | Fe            37         0.312500              2.500       F       |
         | Fe            38         0.312500              2.500       F       |
         | Fe            39         0.312500              2.500       F       |
         | Fe            40         0.312500              2.500       F       |
         | Fe            41         0.312500              2.500       F       |
         | Fe            42         0.312500              2.500       F       |
         | Fe            43         0.312500              2.500       F       |
         | Fe            44         0.312500              2.500       F       |
         | Fe            45         0.312500              2.500       F       |
         | Fe            46         0.312500              2.500       F       |
         | Fe            47         0.312500              2.500       F       |
         | Fe            48         0.312500              2.500       F       |
         xxxxxxxxxxxxxxxxxxxxxxxxxxxxxxxxxxxxxxxxxxxxxxxxxxxxxxxxxxxxxxxxxxxxxx
 
 
                          Files used for pseudopotentials:
                                    H 1|0.6|13|15|17|10(qc=8)
                                    Fe 3|2.4|2.4|1.0|8|9|10|40:41:32U2U2(qc=5.5)
 
                           -------------------------------
                              k-Points For BZ Sampling
                           -------------------------------
                       MP grid size for SCF calculation is  4  4  1
                            with an offset of   0.000  0.000  0.000
                       Number of kpoints used =   8
 
                           -------------------------------
                               Symmetry and Constraints
                           -------------------------------
 
                      Maximum deviation from symmetry =  0.00000         ANG
 
                      Number of symmetry operations   = 1
                      Number of ionic constraints     = 3
                      Point group of crystal =     1: C1, 1, 1
                      Space group of crystal =     1: P1, P 1
 
             Set iprint > 1 for details on symmetry rotations/translations
 
                         Centre of mass is constrained
             Set iprint > 1 for details of linear ionic constraints
 
                         Number of cell constraints= 0
                         Cell constraints are:  1 2 3 4 5 6
 
                         External pressure/stress (GPa)
                          0.00000   0.00000   0.00000
                                    0.00000   0.00000
                                              0.00000
  
+---------------- MEMORY AND SCRATCH DISK ESTIMATES PER PROCESS --------------+
|                                                     Memory          Disk    |
| Baseline code, static data and system overhead      771.0 MB         0.0 MB |
| BLAS internal memory storage                          0.0 MB         0.0 MB |
| Model and support data                              262.5 MB        43.6 MB |
| Electronic energy minimisation requirements         456.9 MB         0.0 MB |
| Force calculation requirements                        3.7 MB         0.0 MB |
| Stress calculation requirements                       3.7 MB         0.0 MB |
|                                               ----------------------------- |
| Approx. total storage required per process         1490.3 MB        43.6 MB |
|                                                                             |
| Requirements will fluctuate during execution and may exceed these estimates |
+-----------------------------------------------------------------------------+
Calculating finite basis set correction with  3 cut-off energies.
Calculating total energy with cut-off of  390.000 eV.
Calculating approximate eigenstates for fixed initial Hamiltonian
Cut-off for approx. calculation is  159.419 eV
Improving approx. states at cut-off of  217.691 eV
Resetting cut-off to  389.869 eV
Improving states further at cut-off of  389.869 eV
------------------------------------------------------------------------ <-- SCF
SCF loop      Energy           Fermi           Energy gain       Timer   <-- SCF
                               energy          per atom          (sec)   <-- SCF
------------------------------------------------------------------------ <-- SCF
Initial   3.25612458E+004 -6.20994327E+001                       238.28  <-- SCF
      1  -4.11106444E+004 -1.11392903E+001   1.18825629E+003    1258.90  <-- SCF
      2  -4.15471445E+004 -3.80443543E+000   7.04032441E+000    2182.71  <-- SCF
      3  -4.16116017E+004 -1.28529153E+000   1.03963212E+000    3207.82  <-- SCF
      4  -4.16245006E+004 -2.62924524E-001   2.08046948E-001    4224.05  <-- SCF
      5  -4.16266504E+004  9.22922625E-002   3.46744784E-002    5235.78  <-- SCF
      6  -4.16269619E+004  2.07219642E-001   5.02404221E-003    6181.69  <-- SCF
      7  -4.16269778E+004  2.20121969E-001   2.55822913E-004    7104.87  <-- SCF
      8  -4.16269784E+004  2.20447078E-001   1.02204335E-005    8115.23  <-- SCF
      9  -4.16269787E+004  2.20221818E-001   4.37587703E-006    9195.48  <-- SCF
     10  -4.16272547E+004  1.51375099E-001   4.45082735E-003   10346.84  <-- SCF
     11  -4.16272992E+004  1.37090881E-001   7.17772582E-004   11207.98  <-- SCF
     12  -4.16273041E+004  1.33435349E-001   8.00297692E-005   12254.49  <-- SCF
     13  -4.16273050E+004  1.31385344E-001   1.45940166E-005   13290.60  <-- SCF
     14  -4.16273050E+004  1.31275297E-001   1.19074551E-007   14120.41  <-- SCF
     15  -4.16273050E+004  1.31252116E-001   5.45447420E-009   14747.71  <-- SCF
     16  -4.16273050E+004  1.31252116E-001   0.00000000E+000   15314.10  <-- SCF
------------------------------------------------------------------------ <-- SCF
 
Integrated Spin Density     =     113.224     hbar/2                        
Integrated |Spin Density|   =     118.446     hbar/2                        
 
Final energy, E             =  -41626.30450751     eV
Final free energy (E-TS)    =  -41627.30502877     eV
(energies not corrected for finite basis set)
 
NB est. 0K energy (E-0.5TS)      =  -41626.80476814     eV
 
Calculating total energy with cut-off of  395.000 eV.
------------------------------------------------------------------------ <-- SCF
SCF loop      Energy           Fermi           Energy gain       Timer   <-- SCF
                               energy          per atom          (sec)   <-- SCF
------------------------------------------------------------------------ <-- SCF
Initial  -4.16267655E+004  1.32281223E-001                     15355.09  <-- SCF
      1  -4.16273908E+004  1.31316394E-001   1.00866215E-002   15803.04  <-- SCF
      2  -4.16273911E+004  1.31007858E-001   5.03438030E-006   16486.80  <-- SCF
      3  -4.16273911E+004  1.31007858E-001   5.98756728E-012   17129.48  <-- SCF
      4  -4.16273911E+004  1.31007858E-001   0.00000000E+000   17718.15  <-- SCF
------------------------------------------------------------------------ <-- SCF
 
Integrated Spin Density     =     113.193     hbar/2                        
Integrated |Spin Density|   =     118.412     hbar/2                        
 
Final energy, E             =  -41626.38969976     eV
Final free energy (E-TS)    =  -41627.39114587     eV
(energies not corrected for finite basis set)
 
NB est. 0K energy (E-0.5TS)      =  -41626.89042281     eV
 
Calculating total energy with cut-off of  400.000 eV.
------------------------------------------------------------------------ <-- SCF
SCF loop      Energy           Fermi           Energy gain       Timer   <-- SCF
                               energy          per atom          (sec)   <-- SCF
------------------------------------------------------------------------ <-- SCF
Initial  -4.16262886E+004  1.28887696E-001                     17760.62  <-- SCF
      1  -4.16274606E+004  1.31205438E-001   1.89046578E-002   18180.67  <-- SCF
      2  -4.16274618E+004  1.30906347E-001   1.89509530E-005   18973.82  <-- SCF
      3  -4.16274618E+004  1.30906342E-001   1.07776211E-010   19553.08  <-- SCF
      4  -4.16274618E+004  1.30906341E-001   3.39295479E-012   20157.99  <-- SCF
------------------------------------------------------------------------ <-- SCF
 
Integrated Spin Density     =     113.184     hbar/2                        
Integrated |Spin Density|   =     118.405     hbar/2                        
 
Final energy, E             =  -41626.46011334     eV
Final free energy (E-TS)    =  -41627.46182141     eV
(energies not corrected for finite basis set)
 
NB est. 0K energy (E-0.5TS)      =  -41626.96096738     eV
 
 For future reference: finite basis dEtot/dlog(Ecut) =      -6.068895eV
 Total energy corrected for finite basis set =  -41627.460648 eV
 
 ************************** Forces **************************
 *                                                          *
 *               Cartesian components (eV/A)                *
 * -------------------------------------------------------- *
 *                         x            y            z      *
 *                                                          *
 * H               1     -0.01858     -0.00118     -0.05198 *
 * H               2     -0.08377     -0.13125     -0.34783 *
 * H               3     -1.81319      0.78844      0.87365 *
 * H               4      0.00096      0.03676     -0.03846 *
 * H               5      0.00147      0.07709      0.03413 *
 * H               6      0.04398     -0.00442      0.04128 *
 * H               7      0.40652     -0.02743     -0.30801 *
 * H               8     -0.03474     -0.13296      0.00445 *
 * H               9     -0.02743     -0.01569     -0.04827 *
 * H              10     -0.03645      0.01446     -0.00366 *
 * H              11      0.02701     -0.01051      0.02741 *
 * H              12      0.00032     -0.00825     -0.00003 *
 * H              13      0.01632     -0.06804     -0.06618 *
 * H              14      0.03283     -0.00430      0.06630 *
 * Fe              1      0.60979      0.07404      0.21544 *
 * Fe              2     -0.02310      0.13316      0.03655 *
 * Fe              3      0.24498      0.19183      0.03456 *
 * Fe              4      0.01214     -0.07014     -0.02142 *
 * Fe              5      0.02422      0.00152     -0.04561 *
 * Fe              6      0.00842     -0.08367      0.00622 *
 * Fe              7     -0.00582      0.08898      0.02924 *
 * Fe              8     -0.02352     -0.05071     -0.07052 *
 * Fe              9     -0.02148      0.08637      0.02910 *
 * Fe             10     -0.00163     -0.02299     -0.00963 *
 * Fe             11      0.08204     -0.28564      0.07173 *
 * Fe             12     -0.03064      0.06080     -0.11318 *
 * Fe             13      0.07955     -0.00132     -0.04579 *
 * Fe             14      0.52955     -0.02513     -0.39981 *
 * Fe             15      0.16814     -0.02189      0.15945 *
 * Fe             16     -0.03201      0.10681      0.02447 *
 * Fe             17     -0.02492     -0.00284     -0.03025 *
 * Fe             18      0.01242     -0.04994      0.04327 *
 * Fe             19      0.02246     -0.06450      0.04123 *
 * Fe             20     -0.10264     -0.10959     -0.05402 *
 * Fe             21     -0.01430      0.10371      0.00387 *
 * Fe             22      0.01385     -0.01308     -0.01815 *
 * Fe             23     -0.00063     -0.87814      0.06505 *
 * Fe             24     -0.04426     -0.08720     -0.01731 *
 * Fe             25      0.01983      0.05462     -0.03470 *
 * Fe             26     -0.00777      0.06710     -0.02274 *
 * Fe             27      0.01320      0.01898      0.00103 *
 * Fe             28      0.01215     -0.08761      0.02105 *
 * Fe             29     -0.00688      0.07061     -0.05281 *
 * Fe             30     -0.00914     -0.02621     -0.02208 *
 * Fe             31      0.01011      0.07421      0.01082 *
 * Fe             32      0.00494      0.01699      0.02583 *
 * Fe             33      0.00227      0.07213     -0.03611 *
 * Fe             34     -0.00520      0.04916     -0.01434 *
 * Fe             35      0.00625     -0.07799     -0.00476 *
 * Fe             36     -0.00177     -0.04146     -0.04751 *
 * Fe             37      0.01878      0.07712      0.00276 *
 * Fe             38     -0.02380      0.05884      0.01044 *
 * Fe             39      0.01056      0.00675      0.01122 *
 * Fe             40      0.01155     -0.07922     -0.00233 *
 * Fe             41     -0.02458      0.05885      0.00377 *
 * Fe             42     -0.00484     -0.00648      0.01379 *
 * Fe             43      0.00721      0.05886      0.04666 *
 * Fe             44      0.02063      0.02639      0.00372 *
 * Fe             45     -0.01970      0.07898     -0.02249 *
 * Fe             46     -0.01270      0.04586      0.01880 *
 * Fe             47      0.00571     -0.06324     -0.01463 *
 * Fe             48     -0.02468     -0.04640     -0.01263 *
 *                                                          *
 ************************************************************
 
 ***************** Stress Tensor *****************
 *                                               *
 *          Cartesian components (GPa)           *
 * --------------------------------------------- *
 *             x             y             z     *
 *                                               *
 *  x     -2.426605     -0.112949     -0.062878  *
 *  y     -0.112949      0.725035     -0.294474  *
 *  z     -0.062878     -0.294474     -0.503907  *
 *                                               *
 *  Pressure:    0.7352                          *
 *                                               *
 *************************************************
 
 Pseudo atomic calculation performed for H 1s1
 
 Converged in 16 iterations to a total energy of -12.4388 eV
 
 Pseudo atomic calculation performed for Fe 3d6 4s2
 
 Converged in 39 iterations to a total energy of -853.7730 eV
Charge spilling parameter for spin component 1 = 0.16%
Charge spilling parameter for spin component 2 = 0.53%
 
                   Orbital Populations                  
  ---------------------------------------------------------------
     Ion    Atom   Orbital              Up        Down      Spin
  ---------------------------------------------------------------
      H     1      S                    0.579     0.645    -0.065
      H     2      S                    0.570     0.646    -0.076
      H     3      S                    0.653     0.708    -0.055
      H     4      S                    0.565     0.651    -0.086
      H     5      S                    0.598     0.665    -0.067
      H     6      S                    0.595     0.668    -0.073
      H     7      S                    0.619     0.673    -0.054
      H     8      S                    0.600     0.669    -0.069
      H     9      S                    0.604     0.664    -0.060
      H    10      S                    0.605     0.672    -0.067
      H    11      S                    0.602     0.669    -0.068
      H    12      S                    0.600     0.669    -0.069
      H    13      S                    0.600     0.659    -0.059
      H    14      S                    0.594     0.666    -0.072
     Fe     1      Dzz                  0.944     0.440     0.504
     Fe     1      Dzy                  0.898     0.481     0.417
     Fe     1      Dzx                  0.911     0.378     0.532
     Fe     1      Dxx-yy               0.865     0.368     0.496
     Fe     1      Dxy                  0.866     0.609     0.257
     Fe     1      S                    0.288     0.254     0.034
     Fe     1      Px                  -0.026    -0.028     0.001
     Fe     1      Py                   0.090     0.102    -0.012
     Fe     1      Pz                   0.052     0.035     0.017
     Fe     2      Dzz                  0.898     0.453     0.445
     Fe     2      Dzy                  0.901     0.487     0.414
     Fe     2      Dzx                  0.950     0.292     0.658
     Fe     2      Dxx-yy               0.935     0.349     0.586
     Fe     2      Dxy                  0.877     0.512     0.365
     Fe     2      S                    0.337     0.358    -0.021
     Fe     2      Px                   0.067     0.105    -0.039
     Fe     2      Py                   0.075     0.123    -0.048
     Fe     2      Pz                   0.090     0.159    -0.069
     Fe     3      Dzz                  0.950     0.455     0.495
     Fe     3      Dzy                  0.872     0.474     0.398
     Fe     3      Dzx                  0.901     0.347     0.554
     Fe     3      Dxx-yy               0.913     0.343     0.570
     Fe     3      Dxy                  0.871     0.576     0.295
     Fe     3      S                    0.336     0.310     0.026
     Fe     3      Px                   0.062     0.092    -0.031
     Fe     3      Py                   0.090     0.104    -0.013
     Fe     3      Pz                   0.047     0.040     0.008
     Fe     4      Dzz                  0.951     0.446     0.505
     Fe     4      Dzy                  0.874     0.470     0.404
     Fe     4      Dzx                  0.915     0.328     0.587
     Fe     4      Dxx-yy               0.913     0.346     0.567
     Fe     4      Dxy                  0.874     0.571     0.303
     Fe     4      S                    0.331     0.306     0.025
     Fe     4      Px                   0.060     0.087    -0.026
     Fe     4      Py                   0.089     0.107    -0.018
     Fe     4      Pz                   0.048     0.038     0.009
     Fe     5      Dzz                  0.908     0.438     0.470
     Fe     5      Dzy                  0.912     0.470     0.442
     Fe     5      Dzx                  0.951     0.292     0.660
     Fe     5      Dxx-yy               0.937     0.342     0.595
     Fe     5      Dxy                  0.886     0.501     0.385
     Fe     5      S                    0.335     0.356    -0.021
     Fe     5      Px                   0.074     0.112    -0.037
     Fe     5      Py                   0.081     0.134    -0.053
     Fe     5      Pz                   0.102     0.172    -0.070
     Fe     6      Dzz                  0.896     0.450     0.446
     Fe     6      Dzy                  0.904     0.488     0.416
     Fe     6      Dzx                  0.950     0.297     0.654
     Fe     6      Dxx-yy               0.935     0.348     0.587
     Fe     6      Dxy                  0.877     0.504     0.373
     Fe     6      S                    0.339     0.362    -0.023
     Fe     6      Px                   0.069     0.109    -0.040
     Fe     6      Py                   0.072     0.123    -0.051
     Fe     6      Pz                   0.087     0.156    -0.069
     Fe     7      Dzz                  0.954     0.424     0.530
     Fe     7      Dzy                  0.885     0.477     0.409
     Fe     7      Dzx                  0.920     0.325     0.595
     Fe     7      Dxx-yy               0.920     0.344     0.576
     Fe     7      Dxy                  0.872     0.557     0.315
     Fe     7      S                    0.332     0.303     0.030
     Fe     7      Px                   0.070     0.096    -0.026
     Fe     7      Py                   0.085     0.097    -0.012
     Fe     7      Pz                   0.051     0.038     0.013
     Fe     8      Dzz                  0.951     0.445     0.506
     Fe     8      Dzy                  0.872     0.477     0.395
     Fe     8      Dzx                  0.912     0.332     0.581
     Fe     8      Dxx-yy               0.916     0.340     0.577
     Fe     8      Dxy                  0.879     0.565     0.314
     Fe     8      S                    0.331     0.305     0.025
     Fe     8      Px                   0.068     0.095    -0.027
     Fe     8      Py                   0.095     0.111    -0.016
     Fe     8      Pz                   0.047     0.035     0.012
     Fe     9      Dzz                  0.897     0.445     0.451
     Fe     9      Dzy                  0.899     0.500     0.399
     Fe     9      Dzx                  0.950     0.299     0.651
     Fe     9      Dxx-yy               0.934     0.346     0.588
     Fe     9      Dxy                  0.878     0.504     0.374
     Fe     9      S                    0.338     0.361    -0.023
     Fe     9      Px                   0.069     0.109    -0.039
     Fe     9      Py                   0.068     0.117    -0.048
     Fe     9      Pz                   0.087     0.154    -0.067
     Fe    10      Dzz                  0.899     0.451     0.449
     Fe    10      Dzy                  0.904     0.485     0.419
     Fe    10      Dzx                  0.952     0.292     0.661
     Fe    10      Dxx-yy               0.935     0.346     0.589
     Fe    10      Dxy                  0.876     0.508     0.368
     Fe    10      S                    0.339     0.361    -0.022
     Fe    10      Px                   0.068     0.106    -0.038
     Fe    10      Py                   0.074     0.123    -0.049
     Fe    10      Pz                   0.086     0.156    -0.070
     Fe    11      Dzz                  0.934     0.500     0.434
     Fe    11      Dzy                  0.874     0.457     0.418
     Fe    11      Dzx                  0.889     0.348     0.541
     Fe    11      Dxx-yy               0.924     0.351     0.574
     Fe    11      Dxy                  0.862     0.569     0.293
     Fe    11      S                    0.330     0.307     0.023
     Fe    11      Px                   0.067     0.105    -0.037
     Fe    11      Py                   0.094     0.107    -0.014
     Fe    11      Pz                   0.040     0.035     0.005
     Fe    12      Dzz                  0.907     0.445     0.461
     Fe    12      Dzy                  0.913     0.466     0.448
     Fe    12      Dzx                  0.951     0.290     0.661
     Fe    12      Dxx-yy               0.935     0.349     0.586
     Fe    12      Dxy                  0.890     0.494     0.396
     Fe    12      S                    0.335     0.357    -0.023
     Fe    12      Px                   0.074     0.110    -0.037
     Fe    12      Py                   0.081     0.136    -0.054
     Fe    12      Pz                   0.100     0.169    -0.069
     Fe    13      Dzz                  0.949     0.475     0.473
     Fe    13      Dzy                  0.884     0.475     0.409
     Fe    13      Dzx                  0.926     0.301     0.626
     Fe    13      Dxx-yy               0.939     0.371     0.568
     Fe    13      Dxy                  0.851     0.507     0.344
     Fe    13      S                    0.328     0.296     0.031
     Fe    13      Px                   0.084     0.111    -0.027
     Fe    13      Py                   0.089     0.095    -0.006
     Fe    13      Pz                   0.043     0.022     0.021
     Fe    14      Dzz                  0.902     0.435     0.467
     Fe    14      Dzy                  0.904     0.494     0.410
     Fe    14      Dzx                  0.956     0.285     0.672
     Fe    14      Dxx-yy               0.937     0.349     0.587
     Fe    14      Dxy                  0.884     0.511     0.373
     Fe    14      S                    0.343     0.362    -0.019
     Fe    14      Px                   0.071     0.105    -0.034
     Fe    14      Py                   0.083     0.134    -0.051
     Fe    14      Pz                   0.088     0.142    -0.054
     Fe    15      Dzz                  0.927     0.509     0.418
     Fe    15      Dzy                  0.855     0.527     0.328
     Fe    15      Dzx                  0.889     0.357     0.531
     Fe    15      Dxx-yy               0.911     0.373     0.538
     Fe    15      Dxy                  0.850     0.550     0.299
     Fe    15      S                    0.301     0.283     0.018
     Fe    15      Px                   0.078     0.107    -0.029
     Fe    15      Py                   0.071     0.077    -0.006
     Fe    15      Pz                   0.032     0.022     0.010
     Fe    16      Dzz                  0.952     0.440     0.512
     Fe    16      Dzy                  0.882     0.477     0.405
     Fe    16      Dzx                  0.928     0.309     0.619
     Fe    16      Dxx-yy               0.920     0.338     0.582
     Fe    16      Dxy                  0.874     0.558     0.316
     Fe    16      S                    0.330     0.299     0.031
     Fe    16      Px                   0.061     0.085    -0.024
     Fe    16      Py                   0.082     0.091    -0.009
     Fe    16      Pz                   0.052     0.037     0.015
     Fe    17      Dzz                  0.898     0.448     0.450
     Fe    17      Dzy                  0.905     0.489     0.416
     Fe    17      Dzx                  0.950     0.295     0.655
     Fe    17      Dxx-yy               0.934     0.345     0.589
     Fe    17      Dxy                  0.875     0.512     0.364
     Fe    17      S                    0.336     0.360    -0.024
     Fe    17      Px                   0.067     0.104    -0.038
     Fe    17      Py                   0.073     0.123    -0.050
     Fe    17      Pz                   0.090     0.160    -0.070
     Fe    18      Dzz                  0.900     0.444     0.455
     Fe    18      Dzy                  0.905     0.484     0.421
     Fe    18      Dzx                  0.951     0.298     0.653
     Fe    18      Dxx-yy               0.936     0.347     0.590
     Fe    18      Dxy                  0.884     0.496     0.388
     Fe    18      S                    0.342     0.360    -0.018
     Fe    18      Px                   0.074     0.115    -0.040
     Fe    18      Py                   0.073     0.125    -0.052
     Fe    18      Pz                   0.080     0.147    -0.068
     Fe    19      Dzz                  0.949     0.445     0.504
     Fe    19      Dzy                  0.855     0.518     0.337
     Fe    19      Dzx                  0.907     0.344     0.564
     Fe    19      Dxx-yy               0.903     0.352     0.552
     Fe    19      Dxy                  0.876     0.565     0.311
     Fe    19      S                    0.328     0.307     0.021
     Fe    19      Px                   0.071     0.102    -0.031
     Fe    19      Py                   0.082     0.096    -0.014
     Fe    19      Pz                   0.043     0.033     0.010
     Fe    20      Dzz                  0.946     0.493     0.453
     Fe    20      Dzy                  0.878     0.468     0.410
     Fe    20      Dzx                  0.927     0.303     0.624
     Fe    20      Dxx-yy               0.919     0.350     0.569
     Fe    20      Dxy                  0.857     0.551     0.306
     Fe    20      S                    0.324     0.294     0.030
     Fe    20      Px                   0.057     0.076    -0.019
     Fe    20      Py                   0.089     0.096    -0.007
     Fe    20      Pz                   0.052     0.036     0.015
     Fe    21      Dzz                  0.899     0.447     0.452
     Fe    21      Dzy                  0.903     0.483     0.420
     Fe    21      Dzx                  0.948     0.301     0.647
     Fe    21      Dxx-yy               0.933     0.343     0.591
     Fe    21      Dxy                  0.876     0.516     0.361
     Fe    21      S                    0.336     0.360    -0.024
     Fe    21      Px                   0.067     0.108    -0.041
     Fe    21      Py                   0.074     0.122    -0.049
     Fe    21      Pz                   0.094     0.163    -0.069
     Fe    22      Dzz                  0.906     0.439     0.467
     Fe    22      Dzy                  0.903     0.488     0.416
     Fe    22      Dzx                  0.951     0.294     0.657
     Fe    22      Dxx-yy               0.937     0.344     0.593
     Fe    22      Dxy                  0.881     0.500     0.381
     Fe    22      S                    0.337     0.356    -0.020
     Fe    22      Px                   0.071     0.112    -0.040
     Fe    22      Py                   0.077     0.129    -0.052
     Fe    22      Pz                   0.086     0.155    -0.069
     Fe    23      Dzz                  0.935     0.496     0.439
     Fe    23      Dzy                  0.900     0.528     0.372
     Fe    23      Dzx                  0.879     0.361     0.519
     Fe    23      Dxx-yy               0.889     0.340     0.550
     Fe    23      Dxy                  0.861     0.569     0.292
     Fe    23      S                    0.279     0.261     0.018
     Fe    23      Px                   0.059     0.080    -0.021
     Fe    23      Py                   0.044     0.044     0.000
     Fe    23      Pz                   0.047     0.046     0.002
     Fe    24      Dzz                  0.901     0.451     0.450
     Fe    24      Dzy                  0.910     0.469     0.442
     Fe    24      Dzx                  0.951     0.296     0.655
     Fe    24      Dxx-yy               0.934     0.345     0.590
     Fe    24      Dxy                  0.879     0.511     0.367
     Fe    24      S                    0.334     0.356    -0.022
     Fe    24      Px                   0.064     0.102    -0.038
     Fe    24      Py                   0.075     0.124    -0.049
     Fe    24      Pz                   0.088     0.159    -0.071
     Fe    25      Dzz                  0.901     0.455     0.447
     Fe    25      Dzy                  0.908     0.492     0.416
     Fe    25      Dzx                  0.951     0.299     0.652
     Fe    25      Dxx-yy               0.932     0.353     0.578
     Fe    25      Dxy                  0.872     0.498     0.374
     Fe    25      S                    0.332     0.360    -0.028
     Fe    25      Px                   0.070     0.111    -0.041
     Fe    25      Py                   0.076     0.136    -0.060
     Fe    25      Pz                   0.079     0.144    -0.065
     Fe    26      Dzz                  0.950     0.349     0.601
     Fe    26      Dzy                  0.943     0.437     0.506
     Fe    26      Dzx                  0.959     0.311     0.647
     Fe    26      Dxx-yy               0.926     0.370     0.556
     Fe    26      Dxy                  0.882     0.529     0.354
     Fe    26      S                    0.407     0.387     0.020
     Fe    26      Px                   0.078     0.089    -0.011
     Fe    26      Py                   0.118     0.177    -0.059
     Fe    26      Pz                   0.058     0.064    -0.006
     Fe    27      Dzz                  0.902     0.456     0.446
     Fe    27      Dzy                  0.908     0.489     0.418
     Fe    27      Dzx                  0.949     0.298     0.651
     Fe    27      Dxx-yy               0.932     0.353     0.580
     Fe    27      Dxy                  0.871     0.504     0.367
     Fe    27      S                    0.332     0.359    -0.028
     Fe    27      Px                   0.069     0.109    -0.041
     Fe    27      Py                   0.077     0.136    -0.060
     Fe    27      Pz                   0.078     0.141    -0.063
     Fe    28      Dzz                  0.900     0.457     0.444
     Fe    28      Dzy                  0.909     0.490     0.419
     Fe    28      Dzx                  0.950     0.298     0.652
     Fe    28      Dxx-yy               0.932     0.356     0.576
     Fe    28      Dxy                  0.874     0.496     0.378
     Fe    28      S                    0.332     0.360    -0.029
     Fe    28      Px                   0.070     0.110    -0.041
     Fe    28      Py                   0.077     0.139    -0.062
     Fe    28      Pz                   0.079     0.143    -0.064
     Fe    29      Dzz                  0.951     0.347     0.604
     Fe    29      Dzy                  0.943     0.440     0.503
     Fe    29      Dzx                  0.959     0.307     0.652
     Fe    29      Dxx-yy               0.928     0.366     0.562
     Fe    29      Dxy                  0.881     0.532     0.349
     Fe    29      S                    0.407     0.386     0.021
     Fe    29      Px                   0.079     0.087    -0.008
     Fe    29      Py                   0.119     0.178    -0.059
     Fe    29      Pz                   0.059     0.064    -0.005
     Fe    30      Dzz                  0.951     0.348     0.603
     Fe    30      Dzy                  0.944     0.434     0.509
     Fe    30      Dzx                  0.958     0.312     0.647
     Fe    30      Dxx-yy               0.927     0.368     0.559
     Fe    30      Dxy                  0.882     0.529     0.353
     Fe    30      S                    0.407     0.386     0.021
     Fe    30      Px                   0.080     0.089    -0.010
     Fe    30      Py                   0.118     0.178    -0.060
     Fe    30      Pz                   0.059     0.064    -0.005
     Fe    31      Dzz                  0.900     0.458     0.442
     Fe    31      Dzy                  0.906     0.493     0.413
     Fe    31      Dzx                  0.949     0.299     0.649
     Fe    31      Dxx-yy               0.931     0.355     0.576
     Fe    31      Dxy                  0.871     0.504     0.367
     Fe    31      S                    0.332     0.361    -0.029
     Fe    31      Px                   0.068     0.109    -0.041
     Fe    31      Py                   0.075     0.136    -0.061
     Fe    31      Pz                   0.076     0.140    -0.064
     Fe    32      Dzz                  0.901     0.456     0.444
     Fe    32      Dzy                  0.906     0.496     0.409
     Fe    32      Dzx                  0.950     0.296     0.654
     Fe    32      Dxx-yy               0.932     0.354     0.578
     Fe    32      Dxy                  0.871     0.500     0.371
     Fe    32      S                    0.332     0.360    -0.028
     Fe    32      Px                   0.069     0.110    -0.040
     Fe    32      Py                   0.077     0.137    -0.060
     Fe    32      Pz                   0.078     0.141    -0.064
     Fe    33      Dzz                  0.950     0.351     0.599
     Fe    33      Dzy                  0.944     0.434     0.510
     Fe    33      Dzx                  0.959     0.311     0.649
     Fe    33      Dxx-yy               0.927     0.369     0.557
     Fe    33      Dxy                  0.883     0.527     0.357
     Fe    33      S                    0.405     0.385     0.020
     Fe    33      Px                   0.080     0.089    -0.009
     Fe    33      Py                   0.120     0.178    -0.058
     Fe    33      Pz                   0.059     0.063    -0.005
     Fe    34      Dzz                  0.951     0.347     0.604
     Fe    34      Dzy                  0.942     0.438     0.504
     Fe    34      Dzx                  0.959     0.311     0.648
     Fe    34      Dxx-yy               0.928     0.366     0.562
     Fe    34      Dxy                  0.881     0.533     0.348
     Fe    34      S                    0.407     0.386     0.021
     Fe    34      Px                   0.079     0.089    -0.009
     Fe    34      Py                   0.118     0.178    -0.059
     Fe    34      Pz                   0.059     0.064    -0.005
     Fe    35      Dzz                  0.899     0.460     0.439
     Fe    35      Dzy                  0.908     0.486     0.422
     Fe    35      Dzx                  0.949     0.298     0.652
     Fe    35      Dxx-yy               0.931     0.356     0.575
     Fe    35      Dxy                  0.873     0.501     0.373
     Fe    35      S                    0.332     0.360    -0.028
     Fe    35      Px                   0.069     0.109    -0.041
     Fe    35      Py                   0.076     0.136    -0.060
     Fe    35      Pz                   0.077     0.140    -0.063
     Fe    36      Dzz                  0.951     0.350     0.601
     Fe    36      Dzy                  0.944     0.435     0.508
     Fe    36      Dzx                  0.959     0.308     0.651
     Fe    36      Dxx-yy               0.927     0.369     0.559
     Fe    36      Dxy                  0.883     0.529     0.354
     Fe    36      S                    0.407     0.386     0.021
     Fe    36      Px                   0.079     0.088    -0.009
     Fe    36      Py                   0.119     0.178    -0.059
     Fe    36      Pz                   0.059     0.064    -0.005
     Fe    37      Dzz                  0.901     0.456     0.445
     Fe    37      Dzy                  0.908     0.487     0.421
     Fe    37      Dzx                  0.949     0.300     0.649
     Fe    37      Dxx-yy               0.932     0.354     0.578
     Fe    37      Dxy                  0.873     0.500     0.373
     Fe    37      S                    0.332     0.361    -0.028
     Fe    37      Px                   0.068     0.108    -0.040
     Fe    37      Py                   0.075     0.135    -0.060
     Fe    37      Pz                   0.077     0.142    -0.065
     Fe    38      Dzz                  0.949     0.353     0.596
     Fe    38      Dzy                  0.943     0.435     0.508
     Fe    38      Dzx                  0.959     0.308     0.651
     Fe    38      Dxx-yy               0.926     0.371     0.554
     Fe    38      Dxy                  0.883     0.529     0.354
     Fe    38      S                    0.407     0.386     0.022
     Fe    38      Px                   0.078     0.087    -0.008
     Fe    38      Py                   0.119     0.178    -0.059
     Fe    38      Pz                   0.057     0.063    -0.005
     Fe    39      Dzz                  0.900     0.460     0.440
     Fe    39      Dzy                  0.901     0.500     0.401
     Fe    39      Dzx                  0.949     0.297     0.652
     Fe    39      Dxx-yy               0.932     0.354     0.578
     Fe    39      Dxy                  0.871     0.502     0.369
     Fe    39      S                    0.333     0.361    -0.028
     Fe    39      Px                   0.071     0.111    -0.041
     Fe    39      Py                   0.077     0.136    -0.059
     Fe    39      Pz                   0.073     0.135    -0.062
     Fe    40      Dzz                  0.900     0.457     0.443
     Fe    40      Dzy                  0.909     0.487     0.423
     Fe    40      Dzx                  0.950     0.300     0.650
     Fe    40      Dxx-yy               0.931     0.355     0.576
     Fe    40      Dxy                  0.873     0.499     0.374
     Fe    40      S                    0.331     0.360    -0.028
     Fe    40      Px                   0.069     0.110    -0.041
     Fe    40      Py                   0.076     0.136    -0.061
     Fe    40      Pz                   0.078     0.142    -0.064
     Fe    41      Dzz                  0.951     0.347     0.603
     Fe    41      Dzy                  0.943     0.440     0.503
     Fe    41      Dzx                  0.959     0.311     0.647
     Fe    41      Dxx-yy               0.928     0.366     0.561
     Fe    41      Dxy                  0.880     0.531     0.348
     Fe    41      S                    0.406     0.386     0.020
     Fe    41      Px                   0.079     0.088    -0.010
     Fe    41      Py                   0.118     0.177    -0.059
     Fe    41      Pz                   0.059     0.065    -0.005
     Fe    42      Dzz                  0.949     0.351     0.598
     Fe    42      Dzy                  0.942     0.439     0.502
     Fe    42      Dzx                  0.959     0.309     0.649
     Fe    42      Dxx-yy               0.926     0.369     0.557
     Fe    42      Dxy                  0.881     0.530     0.352
     Fe    42      S                    0.407     0.387     0.020
     Fe    42      Px                   0.079     0.088    -0.009
     Fe    42      Py                   0.119     0.179    -0.060
     Fe    42      Pz                   0.057     0.062    -0.005
     Fe    43      Dzz                  0.899     0.457     0.443
     Fe    43      Dzy                  0.909     0.494     0.414
     Fe    43      Dzx                  0.949     0.299     0.650
     Fe    43      Dxx-yy               0.932     0.354     0.578
     Fe    43      Dxy                  0.872     0.500     0.372
     Fe    43      S                    0.333     0.362    -0.029
     Fe    43      Px                   0.069     0.110    -0.041
     Fe    43      Py                   0.077     0.138    -0.061
     Fe    43      Pz                   0.074     0.136    -0.062
     Fe    44      Dzz                  0.901     0.455     0.446
     Fe    44      Dzy                  0.907     0.489     0.418
     Fe    44      Dzx                  0.950     0.299     0.651
     Fe    44      Dxx-yy               0.932     0.353     0.579
     Fe    44      Dxy                  0.870     0.503     0.368
     Fe    44      S                    0.331     0.359    -0.028
     Fe    44      Px                   0.068     0.109    -0.041
     Fe    44      Py                   0.076     0.135    -0.059
     Fe    44      Pz                   0.078     0.143    -0.064
     Fe    45      Dzz                  0.950     0.350     0.600
     Fe    45      Dzy                  0.944     0.432     0.512
     Fe    45      Dzx                  0.959     0.312     0.646
     Fe    45      Dxx-yy               0.927     0.370     0.557
     Fe    45      Dxy                  0.883     0.527     0.356
     Fe    45      S                    0.406     0.386     0.019
     Fe    45      Px                   0.080     0.090    -0.010
     Fe    45      Py                   0.119     0.178    -0.059
     Fe    45      Pz                   0.059     0.064    -0.005
     Fe    46      Dzz                  0.951     0.348     0.602
     Fe    46      Dzy                  0.942     0.439     0.503
     Fe    46      Dzx                  0.959     0.308     0.651
     Fe    46      Dxx-yy               0.927     0.367     0.561
     Fe    46      Dxy                  0.881     0.532     0.349
     Fe    46      S                    0.408     0.386     0.022
     Fe    46      Px                   0.079     0.088    -0.009
     Fe    46      Py                   0.119     0.178    -0.059
     Fe    46      Pz                   0.058     0.062    -0.005
     Fe    47      Dzz                  0.899     0.461     0.438
     Fe    47      Dzy                  0.903     0.495     0.409
     Fe    47      Dzx                  0.949     0.298     0.651
     Fe    47      Dxx-yy               0.931     0.357     0.574
     Fe    47      Dxy                  0.874     0.498     0.376
     Fe    47      S                    0.333     0.361    -0.029
     Fe    47      Px                   0.070     0.111    -0.041
     Fe    47      Py                   0.076     0.136    -0.060
     Fe    47      Pz                   0.074     0.136    -0.062
     Fe    48      Dzz                  0.950     0.348     0.602
     Fe    48      Dzy                  0.943     0.436     0.507
     Fe    48      Dzx                  0.958     0.312     0.646
     Fe    48      Dxx-yy               0.927     0.369     0.558
     Fe    48      Dxy                  0.881     0.528     0.353
     Fe    48      S                    0.406     0.387     0.019
     Fe    48      Px                   0.079     0.089    -0.010
     Fe    48      Py                   0.118     0.177    -0.060
     Fe    48      Pz                   0.059     0.065    -0.006
  ---------------------------------------------------------------
                           Total:     255.592   142.407   113.184
  ---------------------------------------------------------------
 
     Atomic Populations (Mulliken)
     -----------------------------
Species          Ion Spin      s       p       d       f      Total   Charge(e)   Spin(hbar/2)
==============================================================================================
  H               1   up:     0.579   0.000   0.000   0.000   0.579    -0.224       -0.065
                  1   dn:     0.645   0.000   0.000   0.000   0.645
  H               2   up:     0.570   0.000   0.000   0.000   0.570    -0.216       -0.076
                  2   dn:     0.646   0.000   0.000   0.000   0.646
  H               3   up:     0.653   0.000   0.000   0.000   0.653    -0.361       -0.055
                  3   dn:     0.708   0.000   0.000   0.000   0.708
  H               4   up:     0.565   0.000   0.000   0.000   0.565    -0.216       -0.086
                  4   dn:     0.651   0.000   0.000   0.000   0.651
  H               5   up:     0.598   0.000   0.000   0.000   0.598    -0.263       -0.067
                  5   dn:     0.665   0.000   0.000   0.000   0.665
  H               6   up:     0.595   0.000   0.000   0.000   0.595    -0.263       -0.073
                  6   dn:     0.668   0.000   0.000   0.000   0.668
  H               7   up:     0.619   0.000   0.000   0.000   0.619    -0.292       -0.054
                  7   dn:     0.673   0.000   0.000   0.000   0.673
  H               8   up:     0.600   0.000   0.000   0.000   0.600    -0.268       -0.069
                  8   dn:     0.669   0.000   0.000   0.000   0.669
  H               9   up:     0.604   0.000   0.000   0.000   0.604    -0.268       -0.060
                  9   dn:     0.664   0.000   0.000   0.000   0.664
  H              10   up:     0.605   0.000   0.000   0.000   0.605    -0.277       -0.067
                 10   dn:     0.672   0.000   0.000   0.000   0.672
  H              11   up:     0.602   0.000   0.000   0.000   0.602    -0.271       -0.068
                 11   dn:     0.669   0.000   0.000   0.000   0.669
  H              12   up:     0.600   0.000   0.000   0.000   0.600    -0.270       -0.069
                 12   dn:     0.669   0.000   0.000   0.000   0.669
  H              13   up:     0.600   0.000   0.000   0.000   0.600    -0.259       -0.059
                 13   dn:     0.659   0.000   0.000   0.000   0.659
  H              14   up:     0.594   0.000   0.000   0.000   0.594    -0.260       -0.072
                 14   dn:     0.666   0.000   0.000   0.000   0.666
  Fe              1   up:     0.288   0.116   4.483   0.000   4.887     0.473        2.247
                  1   dn:     0.254   0.110   2.276   0.000   2.640
  Fe              2   up:     0.337   0.232   4.560   0.000   5.129     0.034        2.292
                  2   dn:     0.358   0.387   2.093   0.000   2.837
  Fe              3   up:     0.336   0.199   4.507   0.000   5.042     0.218        2.301
                  3   dn:     0.310   0.236   2.195   0.000   2.741
  Fe              4   up:     0.331   0.197   4.527   0.000   5.055     0.246        2.356
                  4   dn:     0.306   0.232   2.161   0.000   2.699
  Fe              5   up:     0.335   0.257   4.595   0.000   5.187    -0.004        2.370
                  5   dn:     0.356   0.418   2.043   0.000   2.817
  Fe              6   up:     0.339   0.227   4.562   0.000   5.128     0.036        2.292
                  6   dn:     0.362   0.388   2.087   0.000   2.836
  Fe              7   up:     0.332   0.206   4.552   0.000   5.091     0.249        2.431
                  7   dn:     0.303   0.231   2.126   0.000   2.660
  Fe              8   up:     0.331   0.210   4.531   0.000   5.072     0.223        2.367
                  8   dn:     0.305   0.241   2.158   0.000   2.705
  Fe              9   up:     0.338   0.224   4.557   0.000   5.119     0.046        2.285
                  9   dn:     0.361   0.379   2.095   0.000   2.835
  Fe             10   up:     0.339   0.229   4.567   0.000   5.134     0.038        2.306
                 10   dn:     0.361   0.386   2.081   0.000   2.828
  Fe             11   up:     0.330   0.201   4.484   0.000   5.015     0.206        2.236
                 11   dn:     0.307   0.248   2.224   0.000   2.779
  Fe             12   up:     0.335   0.255   4.596   0.000   5.185    -0.001        2.370
                 12   dn:     0.357   0.415   2.043   0.000   2.815
  Fe             13   up:     0.328   0.215   4.549   0.000   5.092     0.255        2.440
                 13   dn:     0.296   0.228   2.128   0.000   2.653
  Fe             14   up:     0.343   0.242   4.582   0.000   5.168     0.015        2.351
                 14   dn:     0.362   0.381   2.073   0.000   2.817
  Fe             15   up:     0.301   0.181   4.431   0.000   4.914     0.280        2.108
                 15   dn:     0.283   0.206   2.316   0.000   2.806
  Fe             16   up:     0.330   0.195   4.556   0.000   5.081     0.286        2.448
                 16   dn:     0.299   0.213   2.121   0.000   2.633
  Fe             17   up:     0.336   0.230   4.562   0.000   5.127     0.036        2.291
                 17   dn:     0.360   0.387   2.089   0.000   2.836
  Fe             18   up:     0.342   0.227   4.576   0.000   5.146     0.038        2.329
                 18   dn:     0.360   0.387   2.069   0.000   2.816
  Fe             19   up:     0.328   0.196   4.490   0.000   5.014     0.226        2.254
                 19   dn:     0.307   0.231   2.222   0.000   2.760
  Fe             20   up:     0.324   0.198   4.528   0.000   5.050     0.280        2.381
                 20   dn:     0.294   0.208   2.167   0.000   2.669
  Fe             21   up:     0.336   0.235   4.561   0.000   5.132     0.026        2.289
                 21   dn:     0.360   0.393   2.089   0.000   2.843
  Fe             22   up:     0.337   0.234   4.578   0.000   5.149     0.035        2.333
                 22   dn:     0.356   0.396   2.064   0.000   2.816
  Fe             23   up:     0.279   0.151   4.466   0.000   4.896     0.378        2.171
                 23   dn:     0.261   0.170   2.294   0.000   2.725
  Fe             24   up:     0.334   0.227   4.575   0.000   5.136     0.052        2.323
                 24   dn:     0.356   0.385   2.072   0.000   2.813
  Fe             25   up:     0.332   0.225   4.564   0.000   5.121     0.030        2.273
                 25   dn:     0.360   0.391   2.098   0.000   2.849
  Fe             26   up:     0.407   0.254   4.659   0.000   5.321    -0.034        2.607
                 26   dn:     0.387   0.330   1.996   0.000   2.713
  Fe             27   up:     0.332   0.223   4.562   0.000   5.117     0.038        2.271
                 27   dn:     0.359   0.387   2.100   0.000   2.845
  Fe             28   up:     0.332   0.226   4.565   0.000   5.123     0.029        2.275
                 28   dn:     0.360   0.392   2.096   0.000   2.848
  Fe             29   up:     0.407   0.257   4.662   0.000   5.326    -0.032        2.620
                 29   dn:     0.386   0.328   1.992   0.000   2.706
  Fe             30   up:     0.407   0.257   4.663   0.000   5.327    -0.035        2.619
                 30   dn:     0.386   0.331   1.991   0.000   2.708
  Fe             31   up:     0.332   0.220   4.555   0.000   5.108     0.038        2.253
                 31   dn:     0.361   0.385   2.108   0.000   2.854
  Fe             32   up:     0.332   0.223   4.559   0.000   5.114     0.035        2.263
                 32   dn:     0.360   0.388   2.103   0.000   2.851
  Fe             33   up:     0.405   0.258   4.663   0.000   5.326    -0.033        2.619
                 33   dn:     0.385   0.330   1.991   0.000   2.707
  Fe             34   up:     0.407   0.256   4.660   0.000   5.323    -0.034        2.613
                 34   dn:     0.386   0.330   1.994   0.000   2.710
  Fe             35   up:     0.332   0.222   4.561   0.000   5.115     0.039        2.269
                 35   dn:     0.360   0.386   2.100   0.000   2.846
  Fe             36   up:     0.407   0.257   4.663   0.000   5.327    -0.033        2.621
                 36   dn:     0.386   0.329   1.990   0.000   2.706
  Fe             37   up:     0.332   0.220   4.563   0.000   5.116     0.042        2.273
                 37   dn:     0.361   0.384   2.097   0.000   2.842
  Fe             38   up:     0.407   0.255   4.659   0.000   5.322    -0.032        2.612
                 38   dn:     0.386   0.328   1.996   0.000   2.710
  Fe             39   up:     0.333   0.220   4.553   0.000   5.106     0.038        2.249
                 39   dn:     0.361   0.382   2.113   0.000   2.856
  Fe             40   up:     0.331   0.222   4.563   0.000   5.117     0.038        2.272
                 40   dn:     0.360   0.388   2.097   0.000   2.845
  Fe             41   up:     0.406   0.255   4.659   0.000   5.320    -0.032        2.608
                 41   dn:     0.386   0.330   1.996   0.000   2.712
  Fe             42   up:     0.407   0.255   4.657   0.000   5.319    -0.034        2.604
                 42   dn:     0.387   0.330   1.999   0.000   2.715
  Fe             43   up:     0.333   0.220   4.561   0.000   5.114     0.035        2.264
                 43   dn:     0.362   0.385   2.104   0.000   2.850
  Fe             44   up:     0.331   0.222   4.561   0.000   5.115     0.040        2.269
                 44   dn:     0.359   0.387   2.099   0.000   2.845
  Fe             45   up:     0.406   0.258   4.662   0.000   5.326    -0.036        2.617
                 45   dn:     0.386   0.332   1.991   0.000   2.710
  Fe             46   up:     0.408   0.256   4.660   0.000   5.324    -0.033        2.615
                 46   dn:     0.386   0.328   1.994   0.000   2.709
  Fe             47   up:     0.333   0.220   4.556   0.000   5.109     0.037        2.255
                 47   dn:     0.361   0.383   2.109   0.000   2.854
  Fe             48   up:     0.406   0.256   4.660   0.000   5.322    -0.035        2.610
                 48   dn:     0.387   0.331   1.994   0.000   2.712
==============================================================================================
 
                 Bond                   Population        Spin       Length (A)
================================================================================
              H 3  -- Fe 1                   0.06         0.02          1.46267
              H 3  -- Fe 23                  0.12         0.01          1.56658
              H 2  -- Fe 15                  0.42         0.02          1.59713
              H 4  -- Fe 11                  0.42         0.01          1.62372
              H 1  -- H 4                    0.03         0.02          1.62806
              H 7  -- Fe 1                   0.31         0.01          1.63063
              H 1  -- Fe 23                  0.36         0.01          1.63512
              H 6  -- Fe 3                   0.36         0.01          1.67289
              H 2  -- Fe 13                  0.34         0.01          1.67986
              H 14 -- Fe 8                   0.35         0.01          1.69229
[...]
             Fe 37 -- Fe 47                  0.24        -0.02          2.45528
             Fe 2  -- Fe 11                  0.11        -0.01          2.45551
             Fe 36 -- Fe 46                  0.36        -0.01          2.45554
             Fe 29 -- Fe 42                  0.36        -0.01          2.45554
             Fe 7  -- Fe 8                   0.13        -0.02          2.45567
             Fe 28 -- Fe 43                  0.24        -0.01          2.45578
             Fe 8  -- Fe 11                  0.12        -0.01          2.45589
             Fe 44 -- Fe 47                  0.25        -0.02          2.45597
             Fe 39 -- Fe 40                  0.24        -0.02          2.45599
             Fe 35 -- Fe 44                  0.24        -0.02          2.45624
             Fe 9  -- Fe 18                  0.25        -0.01          2.45630
             Fe 37 -- Fe 39                  0.24        -0.01          2.45641
             Fe 46 -- Fe 47                  0.02         0.03          2.45654
             Fe 28 -- Fe 39                  0.25        -0.02          2.45667
             Fe 32 -- Fe 47                  0.24        -0.02          2.45700
             Fe 38 -- Fe 39                  0.02         0.03          2.45757
             Fe 42 -- Fe 43                  0.02         0.03          2.45800
             Fe 27 -- Fe 40                  0.24        -0.02          2.45810
              H 11 -- H 12                   0.01         0.00          2.45860
             Fe 18 -- Fe 43                  0.20        -0.00          2.45883
             Fe 12 -- Fe 22                  0.23        -0.00          2.45902
             Fe 9  -- Fe 32                  0.21        -0.00          2.45983
             Fe 9  -- Fe 22                  0.24        -0.01          2.46000
             Fe 22 -- Fe 24                  0.22        -0.00          2.46017
             Fe 7  -- Fe 20                  0.11        -0.01          2.46017
             Fe 11 -- Fe 20                  0.22        -0.05          2.46050
             Fe 37 -- Fe 48                  0.02         0.03          2.46145
             Fe 5  -- Fe 18                  0.23        -0.01          2.46159
             Fe 22 -- Fe 23                  0.19        -0.02          2.46178
             Fe 2  -- Fe 3                   0.13        -0.01          2.46222
             Fe 6  -- Fe 7                   0.13        -0.01          2.46238
             Fe 30 -- Fe 31                  0.02         0.03          2.46278
             Fe 32 -- Fe 33                  0.02         0.03          2.46282
             Fe 5  -- Fe 6                   0.25        -0.01          2.46314
             Fe 16 -- Fe 17                  0.11        -0.01          2.46316
             Fe 22 -- Fe 47                  0.19        -0.00          2.46318
             Fe 25 -- Fe 36                  0.02         0.03          2.46332
             Fe 26 -- Fe 27                  0.02         0.03          2.46333
             Fe 6  -- Fe 31                  0.21        -0.00          2.46429
             Fe 17 -- Fe 18                  0.27        -0.01          2.46475
             Fe 40 -- Fe 41                  0.03         0.03          2.46513
             Fe 34 -- Fe 35                  0.02         0.03          2.46534
             Fe 44 -- Fe 45                  0.03         0.03          2.46627
             Fe 12 -- Fe 25                  0.21        -0.00          2.46737
             Fe 28 -- Fe 29                  0.02         0.03          2.46782
             Fe 4  -- Fe 5                   0.13        -0.01          2.46897
             Fe 13 -- Fe 17                  0.12        -0.01          2.46936
             Fe 21 -- Fe 44                  0.22        -0.01          2.47059
             Fe 10 -- Fe 35                  0.21        -0.00          2.47120
              H 10 -- H 11                   0.01         0.00          2.47128
             Fe 17 -- Fe 40                  0.21        -0.00          2.47137
             Fe 9  -- Fe 28                  0.21        -0.00          2.47369
             Fe 10 -- Fe 11                  0.15        -0.02          2.47408
             Fe 19 -- Fe 20                  0.11        -0.02          2.47581
             Fe 24 -- Fe 37                  0.20        -0.00          2.47598
             Fe 18 -- Fe 39                  0.20        -0.00          2.47600
             Fe 22 -- Fe 43                  0.21        -0.00          2.47740
             Fe 11 -- Fe 13                  0.22        -0.03          2.47740
             Fe 2  -- Fe 27                  0.21        -0.00          2.47747
             Fe 5  -- Fe 28                  0.21        -0.00          2.47978
             Fe 20 -- Fe 24                  0.16        -0.02          2.48023
             Fe 5  -- Fe 25                  0.21        -0.01          2.48047
             Fe 2  -- Fe 35                  0.21        -0.00          2.48156
             Fe 12 -- Fe 32                  0.21        -0.00          2.48199
             Fe 17 -- Fe 37                  0.20        -0.00          2.48459
             Fe 10 -- Fe 31                  0.21        -0.00          2.48474
             Fe 6  -- Fe 27                  0.21        -0.00          2.48537
             Fe 13 -- Fe 23                  0.07        -0.03          2.48723
             Fe 21 -- Fe 40                  0.21        -0.01          2.48898
             Fe 5  -- Fe 14                  0.34        -0.02          2.48931
             Fe 24 -- Fe 44                  0.22        -0.01          2.49200
             Fe 13 -- Fe 15                  0.22        -0.05          2.49416
             Fe 13 -- Fe 24                  0.10        -0.01          2.49581
              H 10 -- H 13                   0.01         0.00          2.50215
             Fe 20 -- Fe 21                  0.13        -0.01          2.50456
             Fe 12 -- Fe 14                  0.33        -0.02          2.50631
              H 5  -- H 7                    0.01         0.00          2.51962
              H 4  -- H 10                   0.01         0.00          2.51990
              H 7  -- H 8                    0.01         0.00          2.52647
             Fe 14 -- Fe 23                 -0.06         0.00          2.53348
             Fe 14 -- Fe 15                  0.01        -0.00          2.53651
              H 10 -- H 14                   0.00         0.00          2.53837
             Fe 1  -- Fe 5                   0.15        -0.02          2.55131
              H 13 -- Fe 8                   0.02        -0.00          2.56596
              H 6  -- H 9                    0.00         0.00          2.57555
             Fe 1  -- Fe 15                 -0.07         0.00          2.58475
             Fe 1  -- Fe 12                  0.15        -0.02          2.58877
              H 3  -- Fe 12                  0.04         0.00          2.59696
             Fe 1  -- Fe 23                 -0.04        -0.00          2.60267
              H 7  -- Fe 13                  0.01        -0.00          2.64047
              H 1  -- H 3                   -0.01         0.00          2.64489
              H 5  -- Fe 11                  0.01        -0.00          2.66022
              H 3  -- Fe 5                   0.03         0.00          2.66209
              H 9  -- Fe 4                  -0.02         0.00          2.66457
              H 8  -- Fe 3                   0.00        -0.00          2.68302
              H 10 -- Fe 19                 -0.00        -0.00          2.70202
              H 11 -- Fe 16                 -0.01        -0.00          2.70494
              H 12 -- Fe 7                  -0.01         0.00          2.72090
              H 4  -- H 13                  -0.00        -0.00          2.72797
              H 3  -- Fe 13                  0.02         0.00          2.72998
              H 9  -- H 13                   0.00        -0.00          2.74225
              H 2  -- Fe 16                 -0.00        -0.00          2.74371
             Fe 15 -- Fe 19                  0.09        -0.02          2.74461
              H 8  -- H 12                   0.01         0.00          2.74524
              H 14 -- Fe 20                 -0.04         0.00          2.75696
              H 5  -- H 12                   0.00        -0.00          2.78681
             Fe 14 -- Fe 37                  0.05         0.01          2.78713
             Fe 9  -- Fe 19                  0.00         0.02          2.78919
              H 6  -- H 10                   0.00         0.00          2.79600
             Fe 4  -- Fe 6                   0.00         0.02          2.79646
             Fe 4  -- Fe 8                   0.08        -0.02          2.79659
             Fe 5  -- Fe 15                  0.05         0.00          2.80538
             Fe 7  -- Fe 21                  0.03         0.01          2.80688
             Fe 19 -- Fe 21                 -0.01         0.02          2.80692
             Fe 8  -- Fe 10                  0.02         0.01          2.80720
             Fe 13 -- Fe 16                  0.07        -0.01          2.80725
             Fe 39 -- Fe 41                 -0.07         0.02          2.80883
             Fe 3  -- Fe 17                  0.03         0.02          2.80942
             Fe 47 -- Fe 48                 -0.06         0.02          2.81210
             Fe 19 -- Fe 23                  0.09        -0.02          2.81212
             Fe 1  -- Fe 2                   0.02         0.01          2.81509
             Fe 43 -- Fe 45                 -0.07         0.02          2.81610
              H 11 -- H 14                   0.00         0.00          2.81623
             Fe 5  -- Fe 12                  0.18        -0.01          2.82154
             Fe 9  -- Fe 31                  0.04         0.01          2.82301
             Fe 40 -- Fe 44                  0.08         0.00          2.82343
             Fe 26 -- Fe 37                 -0.07         0.02          2.82378
             Fe 6  -- Fe 10                  0.14        -0.01          2.82388
             Fe 3  -- Fe 7                   0.10        -0.02          2.82409
             Fe 11 -- Fe 24                 -0.00         0.02          2.82424
             Fe 2  -- Fe 10                  0.16        -0.01          2.82464
             Fe 29 -- Fe 36                  0.36        -0.04          2.82554
              H 6  -- Fe 15                 -0.06         0.00          2.82595
             Fe 18 -- Fe 28                  0.04         0.01          2.82614
             Fe 27 -- Fe 35                  0.08         0.00          2.82623
             Fe 32 -- Fe 46                 -0.06         0.02          2.82639
             Fe 12 -- Fe 35                  0.04         0.01          2.82702
             Fe 30 -- Fe 40                 -0.07         0.02          2.82716
             Fe 28 -- Fe 42                 -0.07         0.02          2.82735
             Fe 14 -- Fe 18                  0.16        -0.01          2.82786
             Fe 32 -- Fe 34                 -0.06         0.02          2.82819
              H 7  -- H 11                   0.00        -0.00          2.82843
             Fe 28 -- Fe 30                 -0.06         0.02          2.82918
             Fe 7  -- Fe 11                  0.07        -0.01          2.82938
             Fe 34 -- Fe 44                 -0.07         0.02          2.83002
             Fe 25 -- Fe 38                 -0.07         0.02          2.83075
             Fe 26 -- Fe 34                  0.36        -0.04          2.83115
             Fe 26 -- Fe 30                  0.36        -0.04          2.83116
             Fe 9  -- Fe 12                  0.16        -0.01          2.83135
             Fe 38 -- Fe 42                  0.37        -0.04          2.83159
             Fe 41 -- Fe 48                  0.36        -0.04          2.83160
             Fe 43 -- Fe 47                  0.08         0.00          2.83160
             Fe 38 -- Fe 46                  0.37        -0.04          2.83164
             Fe 39 -- Fe 47                  0.08         0.00          2.83166
             Fe 25 -- Fe 32                  0.08         0.00          2.83171
             Fe 25 -- Fe 26                 -0.07         0.02          2.83188
             Fe 17 -- Fe 21                  0.13        -0.01          2.83199
             Fe 10 -- Fe 44                  0.05         0.01          2.83228
             Fe 5  -- Fe 27                  0.04         0.01          2.83267
             Fe 17 -- Fe 24                  0.15        -0.01          2.83269
             Fe 33 -- Fe 43                 -0.07         0.02          2.83291
             Fe 18 -- Fe 22                  0.15        -0.01          2.83298
             Fe 25 -- Fe 28                  0.08         0.00          2.83348
             Fe 41 -- Fe 45                  0.36        -0.04          2.83357
             Fe 28 -- Fe 32                  0.07         0.01          2.83358
             Fe 45 -- Fe 48                  0.36        -0.04          2.83361
             Fe 31 -- Fe 33                 -0.07         0.02          2.83386
             Fe 29 -- Fe 39                 -0.07         0.02          2.83398
             Fe 21 -- Fe 24                  0.16        -0.01          2.83418
             Fe 31 -- Fe 45                 -0.07         0.02          2.83524
             Fe 22 -- Fe 32                  0.04         0.01          2.83549
             Fe 39 -- Fe 43                  0.08         0.00          2.83551
             Fe 42 -- Fe 46                  0.36        -0.04          2.83556
             Fe 35 -- Fe 48                 -0.07         0.02          2.83570
             Fe 31 -- Fe 35                  0.08         0.00          2.83579
             Fe 30 -- Fe 34                  0.36        -0.04          2.83646
             Fe 37 -- Fe 44                  0.08         0.00          2.83655
             Fe 29 -- Fe 33                  0.36        -0.04          2.83660
             Fe 33 -- Fe 36                  0.36        -0.04          2.83662
             Fe 6  -- Fe 40                  0.04         0.01          2.83671
             Fe 27 -- Fe 31                  0.08         0.00          2.83675
             Fe 27 -- Fe 41                 -0.07         0.02          2.83682
             Fe 36 -- Fe 47                 -0.07         0.02          2.83745
             Fe 35 -- Fe 36                 -0.07         0.02          2.83751
             Fe 27 -- Fe 29                 -0.07         0.02          2.83772
             Fe 37 -- Fe 40                  0.08         0.00          2.83879
             Fe 14 -- Fe 22                  0.13        -0.00          2.83930
              H 1  -- H 5                    0.00         0.00          2.83958
             Fe 12 -- Fe 23                  0.03         0.00          2.84145
             Fe 2  -- Fe 37                  0.04         0.01          2.84241
             Fe 22 -- Fe 44                  0.04         0.01          2.84296
              H 1  -- Fe 11                 -0.13         0.01          2.84325
             Fe 13 -- Fe 20                 -0.03        -0.01          2.84329
             Fe 14 -- Fe 25                  0.05         0.01          2.84332
             Fe 18 -- Fe 40                  0.05         0.01          2.84384
             Fe 1  -- Fe 4                   0.11        -0.03          2.84412
             Fe 40 -- Fe 42                 -0.07         0.02          2.84495
             Fe 16 -- Fe 18                 -0.01         0.01          2.84544
             Fe 3  -- Fe 11                  0.07        -0.02          2.84557
             Fe 5  -- Fe 9                   0.15        -0.01          2.84595
             Fe 3  -- Fe 5                  -0.05         0.02          2.84799
             Fe 44 -- Fe 46                 -0.07         0.02          2.84856
             Fe 16 -- Fe 20                  0.09        -0.02          2.84890
             Fe 23 -- Fe 24                  0.03         0.01          2.84942
             Fe 8  -- Fe 22                 -0.07         0.02          2.84993
             Fe 2  -- Fe 6                   0.15        -0.01          2.85029
             Fe 37 -- Fe 38                 -0.07         0.02          2.85181
             Fe 13 -- Fe 14                  0.07         0.00          2.85476
             Fe 17 -- Fe 27                  0.04         0.01          2.85577
              H 7  -- H 14                   0.00        -0.00          2.85953
             Fe 6  -- Fe 16                 -0.04         0.02          2.85989
             Fe 21 -- Fe 43                  0.03         0.01          2.86070
             Fe 11 -- Fe 12                 -0.05         0.02          2.86157
             Fe 15 -- Fe 17                  0.00         0.01          2.86197
             Fe 9  -- Fe 43                  0.04         0.01          2.86411
             Fe 17 -- Fe 39                  0.02         0.01          2.86466
             Fe 24 -- Fe 35                  0.03         0.01          2.86543
             Fe 24 -- Fe 47                  0.03         0.01          2.86651
             Fe 20 -- Fe 22                 -0.04         0.02          2.86768
             Fe 6  -- Fe 28                  0.03         0.01          2.86894
             Fe 4  -- Fe 18                 -0.08         0.03          2.87051
             Fe 1  -- Fe 8                   0.10        -0.02          2.87156
             Fe 12 -- Fe 47                  0.04         0.01          2.87271
             Fe 2  -- Fe 13                 -0.07         0.02          2.87356
             Fe 7  -- Fe 9                  -0.05         0.02          2.87436
             Fe 21 -- Fe 31                  0.03         0.01          2.87450
             Fe 10 -- Fe 32                  0.03         0.01          2.87584
             Fe 2  -- Fe 25                  0.04         0.01          2.87745
             Fe 5  -- Fe 39                  0.03         0.01          2.87874
             Fe 10 -- Fe 20                 -0.04         0.02          2.89311
              H 13 -- Fe 22                 -0.16         0.02          2.91446
              H 4  -- Fe 7                   0.01        -0.00          2.93412
             Fe 15 -- Fe 23                 -0.06        -0.01          2.94345
              H 10 -- Fe 21                 -0.15         0.02          2.95619
              H 9  -- Fe 18                 -0.18         0.02          2.95919
              H 12 -- Fe 9                  -0.17         0.02          2.96550
              H 5  -- H 8                    0.00        -0.00          2.96870
              H 11 -- Fe 6                  -0.16         0.02          2.97186
              H 14 -- Fe 10                 -0.16         0.02          2.98620
              H 8  -- Fe 5                  -0.16         0.02          2.99021
              H 7  -- Fe 2                  -0.15         0.02          2.99640
================================================================================
 

Writing analysis data to neb-calc_1-6.castep_bin

Writing model to neb-calc_1-6.check
 
 A BibTeX formatted list of references used in this run has been written to 
 neb-calc_1-6.bib
 
Initialisation time =     10.16 s
Calculation time    =  20228.58 s
Finalisation time   =      6.45 s
Total time          =  20245.20 s
Peak Memory Use     = 2125756 kB
  
Overall parallel efficiency rating: Very good (89%)                             
  
Data was distributed by:-
G-vector (16-way); efficiency rating: Excellent (90%)                           
k-point (8-way); efficiency rating: Excellent (99%)                             
