 +-------------------------------------------------+
 |                                                 |
 |      CCC   AA    SSS  TTTTT  EEEEE  PPPP        |
 |     C     A  A  S       T    E      P   P       |
 |     C     AAAA   SS     T    EEE    PPPP        |
 |     C     A  A     S    T    E      P           |
 |      CCC  A  A  SSS     T    EEEEE  P           |
 |                                                 |
 +-------------------------------------------------+
 |                                                 |
 | Welcome to Academic Release CASTEP version 21.11|          
 | Ab Initio Total Energy Program                  |
 |                                                 |
 | Authors:                                        |
 | M. Segall, M. Probert, C. Pickard, P. Hasnip,   |
 | S. Clark, K. Refson, J. R. Yates, M. Payne      |
 |                                                 |
 | Contributors:                                   |
 | P. Lindan, P. Haynes, J. White, V. Milman,      |
 | N. Govind, M. Gibson, P. Tulip, V. Cocula,      |
 | B. Montanari, D. Quigley, M. Glover,            |
 | L. Bernasconi, A. Perlov, M. Plummer,           |
 | E. McNellis, J. Meyer, J. Gale, D. Jochym       |
 | J. Aarons, B. Walker, R. Gillen, D. Jones       |
 | T. Green, I. J. Bush, C. J. Armstrong,          |
 | E. J. Higgins, E. L. Brown, M. S. McFly,        |
 | J. Wilkins, B-C. Shih, P. J. P. Byrne,          |
 | R. J. Maurer, J. C. Womack, J. Dziedzic,        |
 | A. Bartok-Partay, L. LeBlanc                    |
 |                                                 |
 | Copyright (c) 2000 - 2021                       |
 |                                                 |
 |     Distributed under license from Cambridge    |
 |     Enterprise for academic use only.           |
 |                                                 |
 | Please cite                                     |
 |                                                 |
 |     "First principles methods using CASTEP"     |
 |                                                 |
 |         Zeitschrift fuer Kristallographie       |
 |           220(5-6) pp. 567-570 (2005)           |
 |                                                 |
 | S. J. Clark, M. D. Segall, C. J. Pickard,       |
 | P. J. Hasnip, M. J. Probert, K. Refson,         |
 | M. C. Payne                                     |
 |                                                 |
 |       in all publications arising from          |
 |              your use of CASTEP                 |
 |                                                 |
 +-------------------------------------------------+
 |                                                 |
 |              http://www.castep.org              |
 |                                                 |
 +-------------------------------------------------+
 
 
 
 Compiled for linux_x86_64_cray-XT on Tue, 01 Mar 2022 09:19:15 +0000
 from code version 7d4405a8a+  HEAD  Sat Nov 27 13:38:33 2021 +0000
 Compiler: Cray Fortran 12.0.3; Optimisation: fast
 MATHLIBS: LibSci (LAPACK version 3.6.1)
 FFT Lib : fftw3 version commercial-fftw-3.3.8-sse2-avx-avx2-avx2_128
 Fundamental constants values: CODATA 2014
 
 Run started: Mon, 27 Jun 2022 07:22:40 -0100
 Warning in parameters_read: presetting of magnetic moments on atoms cannot be guaranteed when metals_method /= density mixing
 
 Atomic calculation performed for H: 1s1
 
 Converged in 41 iterations to an ae energy of -12.488 eV
 
   ============================================================                
   | Pseudopotential Report - Date of generation 27-06-2022   |                
   ------------------------------------------------------------                
   | Element: H Ionic charge:  1.00 Level of theory: PBE      |                
   | Atomic Solver: Koelling-Harmon                           |                
   |                                                          |                
   |               Reference Electronic Structure             |                
   |         Orbital         Occupation         Energy        |                
   |            1s              1.000           -0.239        |                
   |                                                          |                
   |                 Pseudopotential Definition               |                
   |        Beta     l      e      Rc     scheme   norm       |                
   |          1      0   -0.239   0.599     qc      0         |                
   |          2      0    0.250   0.599     qc      0         |                
   |         loc     1    0.000   0.599     pn      0         |                
   |                                                          |                
   | Augmentation charge Rinner = 0.421                       |                
   | No partial core correction                               |                
   ------------------------------------------------------------                
   | "1|0.6|13|15|17|10(qc=8)"                                |                
   ------------------------------------------------------------                
   |      Author: Chris J. Pickard, Cambridge University      |                
   ============================================================                
 
 Atomic calculation performed for Fe: 1s2 2s2 2p6 3s2 3p6 3d6 4s2
 
 Converged in 96 iterations to an ae energy of -34625.101 eV
 
   ============================================================                
   | Pseudopotential Report - Date of generation 27-06-2022   |                
   ------------------------------------------------------------                
   | Element: Fe Ionic charge:  8.00 Level of theory: PBE     |                
   | Atomic Solver: Koelling-Harmon                           |                
   |                                                          |                
   |               Reference Electronic Structure             |                
   |         Orbital         Occupation         Energy        |                
   |            3d              6.000           -0.276        |                
   |            4s              2.000           -0.194        |                
   |                                                          |                
   |                 Pseudopotential Definition               |                
   |        Beta     l      e      Rc     scheme   norm       |                
   |          1      0   -0.194   2.399     qc      0         |                
   |          2      0    0.250   2.399     qc      0         |                
   |          3      1    0.000   2.399     qc      0         |                
   |          4      1    0.250   2.399     qc      0         |                
   |          5      2   -0.276   1.997     qc      0         |                
   |          6      2    0.250   1.997     qc      0         |                
   |         loc     3    0.000   2.399     pn      0         |                
   |                                                          |                
   | Augmentation charge Rinner = 1.000                       |                
   | Partial core correction Rc = 1.000                       |                
   ------------------------------------------------------------                
   | "3|2.4|2.4|1.0|8|9|10|40:41:32U2U2(qc=5.5)"              |                
   ------------------------------------------------------------                
   |      Author: Chris J. Pickard, Cambridge University      |                
   ============================================================                
 
 Pseudo atomic calculation performed for H 1s1
 
 Converged in 16 iterations to a total energy of -12.4388 eV
 
 Pseudo atomic calculation performed for Fe 3d6 4s2
 
 Converged in 39 iterations to a total energy of -853.7730 eV
 Calculation parallelised over 128 processes.
 Data is distributed by G-vector(16-way) and k-point(8-way)

 ************************************ Title ************************************
 

 ***************************** General Parameters ******************************
  
 output verbosity                               : normal  (1)
 write checkpoint data to                       : neb-calc_1-4.check
 type of calculation                            : single point energy
 stress calculation                             : on
 density difference calculation                 : off
 electron localisation func (ELF) calculation   : off
 Hirshfeld analysis                             : off
 polarisation (Berry phase) analysis            : off
 molecular orbital projected DOS                : off
 deltaSCF calculation                           : off
 unlimited duration calculation
 timing information                             : on
 memory usage estimate                          : on
 write extra output files                       : on
 write final potential to formatted file        : off
 write final density to formatted file          : off
 write BibTeX reference list                    : on
 write OTFG pseudopotential files               : on
 write electrostatic potential file             : on
 write bands file                               : on
 checkpoint writing                             : both castep_bin and check files
  
 output         length unit                     : A
 output           mass unit                     : amu
 output           time unit                     : ps
 output         charge unit                     : e
 output           spin unit                     : hbar/2
 output         energy unit                     : eV
 output          force unit                     : eV/A
 output       velocity unit                     : A/ps
 output       pressure unit                     : GPa
 output     inv_length unit                     : 1/A
 output      frequency unit                     : cm-1
 output force constant unit                     : eV/A**2
 output         volume unit                     : A**3
 output   IR intensity unit                     : (D/A)**2/amu
 output         dipole unit                     : D
 output         efield unit                     : eV/A/e
 output        entropy unit                     : J/mol/K
 output    efield chi2 unit                     : pm/V
  
 wavefunctions paging                           : none
 random number generator seed                   : randomised (72240931)
 data distribution                              : optimal for this architecture
 optimization strategy                          : balance speed and memory

 *********************** Exchange-Correlation Parameters ***********************
  
 using functional                               : Perdew Burke Ernzerhof
 relativistic treatment                         : Koelling-Harmon
 DFT+D: Semi-empirical dispersion correction    : off

 ************************* Pseudopotential Parameters **************************
  
 pseudopotential representation                 : reciprocal space
 <beta|phi> representation                      : reciprocal space
 spin-orbit coupling                            : off

 **************************** Basis Set Parameters *****************************
  
 plane wave basis set cut-off                   :   400.0000   eV
 size of standard grid                          :     1.7500
 size of   fine   gmax                          :    17.9311   1/A
 finite basis set correction                    : automatic
 number of sample energies                      :          3
           sample  spacing                      :     5.0000   eV

 **************************** Electronic Parameters ****************************
  
 number of  electrons                           :  398.0    
 net charge of system                           :  0.000    
 net spin   of system                           :  120.0    
 number of  up  spins                           :  259.0    
 number of down spins                           :  139.0    
 treating system as spin-polarized
 number of bands                                :       1036
 electron temperature                           :     0.0000   K

 ********************* Electronic Minimization Parameters **********************
  
 Method: Treating system as metallic with ensemble DFT treatment of electrons,
         and number of  SD  steps               :          1
         and number of  CG  steps               :          4
  
 total energy / atom convergence tol.           : 0.1000E-06   eV
 max force / atom convergence tol.              : ignored
 convergence tolerance window                   :          3   cycles
 max. number of SCF cycles                      :        200
 number of fixed-spin iterations                :         10
 smearing scheme                                : Gaussian
 smearing width                                 : 0.2000       eV
 Fermi energy convergence tolerance             : 0.2721E-13   eV
 number of occupancy cycles                     :          6
 periodic dipole correction                     : NONE

 *********************** Population Analysis Parameters ************************
  
 Population analysis with cutoff                :  3.000       A
 Population analysis output                     : summary and pdos components

 *******************************************************************************
  
 
                           -------------------------------
                                      Unit Cell
                           -------------------------------
        Real Lattice(A)                      Reciprocal Lattice(1/A)
     8.0127110     0.0000000     0.0000000        0.784152244   0.000000000   0.000000000
     0.0000000     8.4987630     0.0000000        0.000000000   0.739305862   0.000000000
     0.0000000     0.0000000    18.0000000        0.000000000   0.000000000   0.349065850
 
                       Lattice parameters(A)       Cell Angles
                    a =      8.012711          alpha =   90.000000
                    b =      8.498763          beta  =   90.000000
                    c =     18.000000          gamma =   90.000000
 
                       Current cell volume =          1225.766372       A**3
                                   density =             2.198356   AMU/A**3
                                           =             3.650456     g/cm^3
 
                           -------------------------------
                                     Cell Contents
                           -------------------------------
                         Total number of ions in cell =   62
                      Total number of species in cell =    2
                        Max number of any one species =   48
 
            xxxxxxxxxxxxxxxxxxxxxxxxxxxxxxxxxxxxxxxxxxxxxxxxxxxxxxxxxxxx
            x  Element    Atom        Fractional coordinates of atoms  x
            x            Number           u          v          w      x
            x----------------------------------------------------------x
            x  H            1         0.358819   0.427791   0.223942   x 
            x  H            2         0.404790   0.668772   0.218666   x 
            x  H            3         0.591842   0.571445   0.267952   x 
            x  H            4         0.161522   0.386440   0.218483   x 
            x  H            5         0.706674   0.401855   0.228151   x 
            x  H            6         0.182593   0.746792   0.225435   x 
            x  H            7         0.954732   0.578302   0.227263   x 
            x  H            8         0.705526   0.754468   0.228381   x 
            x  H            9         0.458701   0.915794   0.230002   x 
            x  H           10         0.201961   0.076643   0.227260   x 
            x  H           11         0.949045   0.912185   0.228551   x 
            x  H           12         0.696741   0.076954   0.229944   x 
            x  H           13         0.466046   0.235963   0.230952   x 
            x  H           14         0.944452   0.242743   0.228386   x 
            x  Fe           1         0.777475   0.577247   0.275771   x 
            x  Fe           2         0.014602   0.574988   0.390305   x 
            x  Fe           3         0.015218   0.744869   0.279708   x 
            x  Fe           4         0.768917   0.913832   0.280617   x 
            x  Fe           5         0.764778   0.741477   0.391008   x 
            x  Fe           6         0.015088   0.909908   0.390824   x 
            x  Fe           7         0.018945   0.077165   0.279155   x 
            x  Fe           8         0.767549   0.240823   0.280914   x 
            x  Fe           9         0.765515   0.075829   0.392109   x 
            x  Fe          10         0.015540   0.242526   0.390679   x 
            x  Fe          11         0.014628   0.410048   0.278877   x 
            x  Fe          12         0.765210   0.409476   0.391357   x 
            x  Fe          13         0.266815   0.578954   0.275417   x 
            x  Fe          14         0.510402   0.576291   0.392369   x 
            x  Fe          15         0.518639   0.752357   0.279555   x 
            x  Fe          16         0.267017   0.910315   0.277964   x 
            x  Fe          17         0.263666   0.742214   0.389840   x 
            x  Fe          18         0.514714   0.909409   0.392080   x 
            x  Fe          19         0.518153   0.076069   0.282714   x 
            x  Fe          20         0.267668   0.246320   0.275750   x 
            x  Fe          21         0.264924   0.075993   0.389625   x 
            x  Fe          22         0.514416   0.242811   0.391978   x 
            x  Fe          23         0.517514   0.403982   0.279716   x 
            x  Fe          24         0.263857   0.409907   0.389491   x 
            x  Fe          25         0.762611   0.574339   0.503773   x 
            x  Fe          26         0.013617   0.572193   0.614438   x 
            x  Fe          27         0.012696   0.740644   0.503246   x 
            x  Fe          28         0.762827   0.907538   0.504024   x 
            x  Fe          29         0.763505   0.738429   0.615185   x 
            x  Fe          30         0.013491   0.905319   0.614433   x 
            x  Fe          31         0.012960   0.074419   0.503501   x 
            x  Fe          32         0.762869   0.241201   0.504085   x 
            x  Fe          33         0.763513   0.072196   0.615039   x 
            x  Fe          34         0.013491   0.239068   0.614436   x 
            x  Fe          35         0.012794   0.408124   0.503325   x 
            x  Fe          36         0.763502   0.405964   0.615186   x 
            x  Fe          37         0.262185   0.574334   0.502893   x 
            x  Fe          38         0.513228   0.572197   0.615234   x 
            x  Fe          39         0.512403   0.740658   0.504109   x 
            x  Fe          40         0.262673   0.908141   0.502957   x 
            x  Fe          41         0.263358   0.738785   0.614244   x 
            x  Fe          42         0.513385   0.905373   0.614899   x 
            x  Fe          43         0.512709   0.074541   0.504304   x 
            x  Fe          44         0.262653   0.240658   0.502821   x 
            x  Fe          45         0.263377   0.072195   0.614466   x 
            x  Fe          46         0.513386   0.239016   0.614898   x 
            x  Fe          47         0.512417   0.408242   0.504051   x 
            x  Fe          48         0.263360   0.405608   0.614245   x 
            xxxxxxxxxxxxxxxxxxxxxxxxxxxxxxxxxxxxxxxxxxxxxxxxxxxxxxxxxxxx
 
 
                         No user defined ionic velocities
 
                           -------------------------------
                                   Details of Species
                           -------------------------------
 
                               Mass of species in AMU
                                    H    1.0079400
                                    Fe   55.8450000
 
                          Electric Quadrupole Moment (Barn)
                                    H    0.0028600 Isotope  2
                                    Fe    0.1600000 Isotope 57
         xxxxxxxxxxxxxxxxxxxxxxxxxxxxxxxxxxxxxxxxxxxxxxxxxxxxxxxxxxxxxxxxxxxxxx
         |  Element    Atom         Initial            Initial magnetic       |
         |            Number    spin polarization        moment (uB)     Fix? |
         |--------------------------------------------------------------------|
         | H              1         0.000000              0.000       F       |
         | H              2         0.000000              0.000       F       |
         | H              3         0.000000              0.000       F       |
         | H              4         0.000000              0.000       F       |
         | H              5         0.000000              0.000       F       |
         | H              6         0.000000              0.000       F       |
         | H              7         0.000000              0.000       F       |
         | H              8         0.000000              0.000       F       |
         | H              9         0.000000              0.000       F       |
         | H             10         0.000000              0.000       F       |
         | H             11         0.000000              0.000       F       |
         | H             12         0.000000              0.000       F       |
         | H             13         0.000000              0.000       F       |
         | H             14         0.000000              0.000       F       |
         | Fe             1         0.312500              2.500       F       |
         | Fe             2         0.312500              2.500       F       |
         | Fe             3         0.312500              2.500       F       |
         | Fe             4         0.312500              2.500       F       |
         | Fe             5         0.312500              2.500       F       |
         | Fe             6         0.312500              2.500       F       |
         | Fe             7         0.312500              2.500       F       |
         | Fe             8         0.312500              2.500       F       |
         | Fe             9         0.312500              2.500       F       |
         | Fe            10         0.312500              2.500       F       |
         | Fe            11         0.312500              2.500       F       |
         | Fe            12         0.312500              2.500       F       |
         | Fe            13         0.312500              2.500       F       |
         | Fe            14         0.312500              2.500       F       |
         | Fe            15         0.312500              2.500       F       |
         | Fe            16         0.312500              2.500       F       |
         | Fe            17         0.312500              2.500       F       |
         | Fe            18         0.312500              2.500       F       |
         | Fe            19         0.312500              2.500       F       |
         | Fe            20         0.312500              2.500       F       |
         | Fe            21         0.312500              2.500       F       |
         | Fe            22         0.312500              2.500       F       |
         | Fe            23         0.312500              2.500       F       |
         | Fe            24         0.312500              2.500       F       |
         | Fe            25         0.312500              2.500       F       |
         | Fe            26         0.312500              2.500       F       |
         | Fe            27         0.312500              2.500       F       |
         | Fe            28         0.312500              2.500       F       |
         | Fe            29         0.312500              2.500       F       |
         | Fe            30         0.312500              2.500       F       |
         | Fe            31         0.312500              2.500       F       |
         | Fe            32         0.312500              2.500       F       |
         | Fe            33         0.312500              2.500       F       |
         | Fe            34         0.312500              2.500       F       |
         | Fe            35         0.312500              2.500       F       |
         | Fe            36         0.312500              2.500       F       |
         | Fe            37         0.312500              2.500       F       |
         | Fe            38         0.312500              2.500       F       |
         | Fe            39         0.312500              2.500       F       |
         | Fe            40         0.312500              2.500       F       |
         | Fe            41         0.312500              2.500       F       |
         | Fe            42         0.312500              2.500       F       |
         | Fe            43         0.312500              2.500       F       |
         | Fe            44         0.312500              2.500       F       |
         | Fe            45         0.312500              2.500       F       |
         | Fe            46         0.312500              2.500       F       |
         | Fe            47         0.312500              2.500       F       |
         | Fe            48         0.312500              2.500       F       |
         xxxxxxxxxxxxxxxxxxxxxxxxxxxxxxxxxxxxxxxxxxxxxxxxxxxxxxxxxxxxxxxxxxxxxx
 
 
                          Files used for pseudopotentials:
                                    H 1|0.6|13|15|17|10(qc=8)
                                    Fe 3|2.4|2.4|1.0|8|9|10|40:41:32U2U2(qc=5.5)
 
                           -------------------------------
                              k-Points For BZ Sampling
                           -------------------------------
                       MP grid size for SCF calculation is  4  4  1
                            with an offset of   0.000  0.000  0.000
                       Number of kpoints used =   8
 
                           -------------------------------
                               Symmetry and Constraints
                           -------------------------------
 
                      Maximum deviation from symmetry =  0.00000         ANG
 
                      Number of symmetry operations   = 1
                      Number of ionic constraints     = 3
                      Point group of crystal =     1: C1, 1, 1
                      Space group of crystal =     1: P1, P 1
 
             Set iprint > 1 for details on symmetry rotations/translations
 
                         Centre of mass is constrained
             Set iprint > 1 for details of linear ionic constraints
 
                         Number of cell constraints= 0
                         Cell constraints are:  1 2 3 4 5 6
 
                         External pressure/stress (GPa)
                          0.00000   0.00000   0.00000
                                    0.00000   0.00000
                                              0.00000
  
+---------------- MEMORY AND SCRATCH DISK ESTIMATES PER PROCESS --------------+
|                                                     Memory          Disk    |
| Baseline code, static data and system overhead      771.0 MB         0.0 MB |
| BLAS internal memory storage                          0.0 MB         0.0 MB |
| Model and support data                              262.5 MB        43.6 MB |
| Electronic energy minimisation requirements         456.9 MB         0.0 MB |
| Force calculation requirements                        3.7 MB         0.0 MB |
| Stress calculation requirements                       3.7 MB         0.0 MB |
|                                               ----------------------------- |
| Approx. total storage required per process         1490.3 MB        43.6 MB |
|                                                                             |
| Requirements will fluctuate during execution and may exceed these estimates |
+-----------------------------------------------------------------------------+
Calculating finite basis set correction with  3 cut-off energies.
Calculating total energy with cut-off of  390.000 eV.
Calculating approximate eigenstates for fixed initial Hamiltonian
Cut-off for approx. calculation is  159.419 eV
Improving approx. states at cut-off of  217.691 eV
Resetting cut-off to  389.869 eV
Improving states further at cut-off of  389.869 eV
------------------------------------------------------------------------ <-- SCF
SCF loop      Energy           Fermi           Energy gain       Timer   <-- SCF
                               energy          per atom          (sec)   <-- SCF
------------------------------------------------------------------------ <-- SCF
Initial   3.13923052E+004 -6.20581946E+001                       238.73  <-- SCF
      1  -4.14003861E+004 -3.92161735E+000   1.17407567E+003    1276.36  <-- SCF
      2  -4.15961136E+004 -5.35636535E-001   3.15689560E+000    2292.68  <-- SCF
      3  -4.16252723E+004  1.66010522E-001   4.70301190E-001    3300.51  <-- SCF
      4  -4.16270220E+004  2.38208970E-001   2.82217351E-002    4238.00  <-- SCF
      5  -4.16271059E+004  2.28249472E-001   1.35346832E-003    5153.01  <-- SCF
      6  -4.16271078E+004  2.26203821E-001   2.95409176E-005    6184.28  <-- SCF
      7  -4.16271079E+004  2.25827148E-001   1.48933252E-006    7294.39  <-- SCF
      8  -4.16271079E+004  2.25775041E-001   8.03423753E-008    8497.95  <-- SCF
      9  -4.16271079E+004  2.25774839E-001   2.68841771E-010    9035.21  <-- SCF
     10  -4.16274460E+004  1.39542387E-001   5.45402812E-003    9949.63  <-- SCF
     11  -4.16274496E+004  1.38003703E-001   5.76326377E-005   10980.12  <-- SCF
     12  -4.16274507E+004  1.36367345E-001   1.80593242E-005   12050.95  <-- SCF
     13  -4.16274510E+004  1.35155539E-001   5.32357980E-006   13058.10  <-- SCF
     14  -4.16274510E+004  1.35098701E-001   1.98958877E-008   13775.72  <-- SCF
     15  -4.16274510E+004  1.35098701E-001   2.79419806E-012   14339.91  <-- SCF
------------------------------------------------------------------------ <-- SCF
 
Integrated Spin Density     =     113.038     hbar/2                        
Integrated |Spin Density|   =     118.283     hbar/2                        
 
Final energy, E             =  -41626.44860982     eV
Final free energy (E-TS)    =  -41627.45104496     eV
(energies not corrected for finite basis set)
 
NB est. 0K energy (E-0.5TS)      =  -41626.94982739     eV
 
Calculating total energy with cut-off of  395.000 eV.
------------------------------------------------------------------------ <-- SCF
SCF loop      Energy           Fermi           Energy gain       Timer   <-- SCF
                               energy          per atom          (sec)   <-- SCF
------------------------------------------------------------------------ <-- SCF
Initial  -4.16272472E+004  1.36244476E-001                     14381.04  <-- SCF
      1  -4.16275370E+004  1.35197598E-001   4.67451692E-003   14844.98  <-- SCF
      2  -4.16275370E+004  1.35005136E-001   4.97003012E-007   15581.47  <-- SCF
      3  -4.16275370E+004  1.35005132E-001   7.98342304E-013   16193.58  <-- SCF
      4  -4.16275370E+004  1.35005132E-001   1.99585576E-013   16780.29  <-- SCF
------------------------------------------------------------------------ <-- SCF
 
Integrated Spin Density     =     113.013     hbar/2                        
Integrated |Spin Density|   =     118.257     hbar/2                        
 
Final energy, E             =  -41626.53386558     eV
Final free energy (E-TS)    =  -41627.53704179     eV
(energies not corrected for finite basis set)
 
NB est. 0K energy (E-0.5TS)      =  -41627.03545369     eV
 
Calculating total energy with cut-off of  400.000 eV.
------------------------------------------------------------------------ <-- SCF
SCF loop      Energy           Fermi           Energy gain       Timer   <-- SCF
                               energy          per atom          (sec)   <-- SCF
------------------------------------------------------------------------ <-- SCF
Initial  -4.16270993E+004  1.34782049E-001                     16823.00  <-- SCF
      1  -4.16276074E+004  1.35076253E-001   8.19531641E-003   17265.46  <-- SCF
      2  -4.16276076E+004  1.34872639E-001   4.40029553E-006   18059.09  <-- SCF
      3  -4.16276076E+004  1.34825927E-001   3.46241057E-009   18760.70  <-- SCF
      4  -4.16276076E+004  1.34825927E-001   0.00000000E+000   19353.73  <-- SCF
------------------------------------------------------------------------ <-- SCF
 
Integrated Spin Density     =     113.004     hbar/2                        
Integrated |Spin Density|   =     118.249     hbar/2                        
 
Final energy, E             =  -41626.60420131     eV
Final free energy (E-TS)    =  -41627.60763457     eV
(energies not corrected for finite basis set)
 
NB est. 0K energy (E-0.5TS)      =  -41627.10591794     eV
 
 For future reference: finite basis dEtot/dlog(Ecut) =      -6.061033eV
 Total energy corrected for finite basis set =  -41627.606462 eV
 
 ************************** Forces **************************
 *                                                          *
 *               Cartesian components (eV/A)                *
 * -------------------------------------------------------- *
 *                         x            y            z      *
 *                                                          *
 * H               1      0.06103      0.03857     -0.04463 *
 * H               2     -0.11246     -0.00117     -0.30764 *
 * H               3     -1.25253      0.68190     -0.32841 *
 * H               4      0.04616      0.07210      0.01153 *
 * H               5     -0.00978      0.05645      0.05649 *
 * H               6      0.03801     -0.00391      0.03061 *
 * H               7      0.22952     -0.01638     -0.12373 *
 * H               8     -0.01879     -0.09617      0.02465 *
 * H               9     -0.01516     -0.01277     -0.01996 *
 * H              10     -0.02515      0.01337      0.00077 *
 * H              11      0.01619     -0.00366      0.02164 *
 * H              12      0.00089     -0.00490     -0.00274 *
 * H              13      0.01399     -0.04384     -0.02022 *
 * H              14      0.02722     -0.00251      0.05297 *
 * Fe              1      0.60782      0.08997      0.51487 *
 * Fe              2     -0.00719      0.12558      0.04117 *
 * Fe              3      0.16287      0.10752      0.01916 *
 * Fe              4     -0.00270     -0.04682     -0.01329 *
 * Fe              5     -0.00325     -0.01488     -0.02694 *
 * Fe              6      0.00015     -0.07970      0.00488 *
 * Fe              7      0.01015      0.08315      0.01594 *
 * Fe              8     -0.01672     -0.06147     -0.04116 *
 * Fe              9     -0.01186      0.09376      0.03393 *
 * Fe             10     -0.00155     -0.03019     -0.00733 *
 * Fe             11      0.03398     -0.21604      0.06419 *
 * Fe             12     -0.04094      0.02624     -0.06843 *
 * Fe             13      0.06635     -0.07396     -0.05780 *
 * Fe             14      0.34197      0.01673     -0.23357 *
 * Fe             15      0.06533      0.07755      0.17824 *
 * Fe             16     -0.05679      0.10402      0.03453 *
 * Fe             17     -0.02182     -0.00834     -0.02382 *
 * Fe             18      0.00986     -0.04710      0.04819 *
 * Fe             19      0.00583     -0.11702      0.03087 *
 * Fe             20     -0.08612     -0.10754     -0.05828 *
 * Fe             21     -0.01803      0.11584      0.00580 *
 * Fe             22      0.01057     -0.03657      0.01068 *
 * Fe             23     -0.03955     -1.00774      0.31615 *
 * Fe             24     -0.03392     -0.07015     -0.01054 *
 * Fe             25      0.02277      0.05682     -0.02112 *
 * Fe             26     -0.00221      0.06839     -0.01290 *
 * Fe             27      0.01093      0.01827      0.00007 *
 * Fe             28      0.01200     -0.08316      0.02157 *
 * Fe             29     -0.00805      0.06147     -0.04299 *
 * Fe             30     -0.00189     -0.03031     -0.01154 *
 * Fe             31      0.00760      0.07041      0.00809 *
 * Fe             32      0.00384      0.02090      0.02400 *
 * Fe             33      0.00381      0.06972     -0.01093 *
 * Fe             34     -0.00011      0.05202     -0.00411 *
 * Fe             35      0.00507     -0.07829     -0.00323 *
 * Fe             36     -0.00370     -0.03538     -0.03838 *
 * Fe             37      0.02001      0.07593     -0.00477 *
 * Fe             38     -0.02268      0.06557     -0.02190 *
 * Fe             39      0.01113      0.00629      0.00870 *
 * Fe             40      0.00990     -0.08019     -0.00725 *
 * Fe             41     -0.01638      0.05580     -0.01366 *
 * Fe             42     -0.00917     -0.02590      0.00619 *
 * Fe             43      0.00642      0.06520      0.04250 *
 * Fe             44      0.01760      0.02731     -0.00184 *
 * Fe             45     -0.01477      0.07332     -0.02923 *
 * Fe             46     -0.01535      0.05543      0.01737 *
 * Fe             47      0.00654     -0.06512     -0.01225 *
 * Fe             48     -0.01690     -0.04443     -0.02117 *
 *                                                          *
 ************************************************************
 
 ***************** Stress Tensor *****************
 *                                               *
 *          Cartesian components (GPa)           *
 * --------------------------------------------- *
 *             x             y             z     *
 *                                               *
 *  x     -2.270168     -0.010210     -0.132842  *
 *  y     -0.010210      0.632654     -0.225770  *
 *  z     -0.132842     -0.225770     -0.528932  *
 *                                               *
 *  Pressure:    0.7221                          *
 *                                               *
 *************************************************
 
 Pseudo atomic calculation performed for H 1s1
 
 Converged in 16 iterations to a total energy of -12.4388 eV
 
 Pseudo atomic calculation performed for Fe 3d6 4s2
 
 Converged in 39 iterations to a total energy of -853.7730 eV
Charge spilling parameter for spin component 1 = 0.16%
Charge spilling parameter for spin component 2 = 0.53%
 
                   Orbital Populations                  
  ---------------------------------------------------------------
     Ion    Atom   Orbital              Up        Down      Spin
  ---------------------------------------------------------------
      H     1      S                    0.575     0.644    -0.069
      H     2      S                    0.565     0.643    -0.078
      H     3      S                    0.648     0.706    -0.057
      H     4      S                    0.571     0.654    -0.083
      H     5      S                    0.594     0.662    -0.068
      H     6      S                    0.592     0.667    -0.074
      H     7      S                    0.610     0.669    -0.059
      H     8      S                    0.595     0.665    -0.070
      H     9      S                    0.602     0.661    -0.059
      H    10      S                    0.606     0.673    -0.067
      H    11      S                    0.601     0.669    -0.068
      H    12      S                    0.600     0.669    -0.069
      H    13      S                    0.598     0.656    -0.058
      H    14      S                    0.596     0.667    -0.071
     Fe     1      Dzz                  0.942     0.434     0.509
     Fe     1      Dzy                  0.892     0.495     0.397
     Fe     1      Dzx                  0.920     0.375     0.545
     Fe     1      Dxx-yy               0.860     0.344     0.516
     Fe     1      Dxy                  0.875     0.608     0.267
     Fe     1      S                    0.294     0.265     0.030
     Fe     1      Px                  -0.010    -0.008    -0.002
     Fe     1      Py                   0.093     0.103    -0.010
     Fe     1      Pz                   0.073     0.059     0.014
     Fe     2      Dzz                  0.897     0.452     0.445
     Fe     2      Dzy                  0.900     0.492     0.408
     Fe     2      Dzx                  0.950     0.292     0.658
     Fe     2      Dxx-yy               0.934     0.348     0.586
     Fe     2      Dxy                  0.876     0.511     0.365
     Fe     2      S                    0.339     0.360    -0.021
     Fe     2      Px                   0.066     0.104    -0.038
     Fe     2      Py                   0.074     0.122    -0.048
     Fe     2      Pz                   0.088     0.157    -0.068
     Fe     3      Dzz                  0.949     0.455     0.494
     Fe     3      Dzy                  0.873     0.479     0.394
     Fe     3      Dzx                  0.898     0.348     0.549
     Fe     3      Dxx-yy               0.913     0.342     0.571
     Fe     3      Dxy                  0.873     0.571     0.301
     Fe     3      S                    0.332     0.307     0.025
     Fe     3      Px                   0.064     0.095    -0.032
     Fe     3      Py                   0.091     0.103    -0.012
     Fe     3      Pz                   0.044     0.035     0.009
     Fe     4      Dzz                  0.951     0.447     0.504
     Fe     4      Dzy                  0.870     0.479     0.391
     Fe     4      Dzx                  0.914     0.331     0.583
     Fe     4      Dxx-yy               0.911     0.344     0.567
     Fe     4      Dxy                  0.873     0.572     0.301
     Fe     4      S                    0.331     0.305     0.025
     Fe     4      Px                   0.060     0.086    -0.026
     Fe     4      Py                   0.089     0.105    -0.017
     Fe     4      Pz                   0.046     0.035     0.011
     Fe     5      Dzz                  0.905     0.439     0.466
     Fe     5      Dzy                  0.908     0.482     0.426
     Fe     5      Dzx                  0.949     0.295     0.654
     Fe     5      Dxx-yy               0.936     0.345     0.591
     Fe     5      Dxy                  0.883     0.500     0.384
     Fe     5      S                    0.332     0.355    -0.023
     Fe     5      Px                   0.072     0.110    -0.038
     Fe     5      Py                   0.077     0.130    -0.053
     Fe     5      Pz                   0.098     0.166    -0.068
     Fe     6      Dzz                  0.897     0.449     0.447
     Fe     6      Dzy                  0.903     0.490     0.414
     Fe     6      Dzx                  0.951     0.297     0.654
     Fe     6      Dxx-yy               0.935     0.348     0.587
     Fe     6      Dxy                  0.878     0.502     0.375
     Fe     6      S                    0.339     0.362    -0.023
     Fe     6      Px                   0.069     0.109    -0.040
     Fe     6      Py                   0.072     0.122    -0.051
     Fe     6      Pz                   0.086     0.156    -0.069
     Fe     7      Dzz                  0.953     0.429     0.524
     Fe     7      Dzy                  0.883     0.477     0.406
     Fe     7      Dzx                  0.916     0.328     0.588
     Fe     7      Dxx-yy               0.919     0.347     0.572
     Fe     7      Dxy                  0.873     0.559     0.314
     Fe     7      S                    0.333     0.304     0.029
     Fe     7      Px                   0.071     0.097    -0.026
     Fe     7      Py                   0.086     0.099    -0.013
     Fe     7      Pz                   0.051     0.039     0.012
     Fe     8      Dzz                  0.951     0.448     0.503
     Fe     8      Dzy                  0.869     0.481     0.387
     Fe     8      Dzx                  0.914     0.331     0.583
     Fe     8      Dxx-yy               0.913     0.342     0.571
     Fe     8      Dxy                  0.876     0.568     0.308
     Fe     8      S                    0.331     0.306     0.025
     Fe     8      Px                   0.065     0.091    -0.026
     Fe     8      Py                   0.093     0.108    -0.016
     Fe     8      Pz                   0.045     0.033     0.012
     Fe     9      Dzz                  0.897     0.446     0.451
     Fe     9      Dzy                  0.900     0.500     0.399
     Fe     9      Dzx                  0.949     0.299     0.650
     Fe     9      Dxx-yy               0.934     0.346     0.588
     Fe     9      Dxy                  0.879     0.502     0.377
     Fe     9      S                    0.338     0.361    -0.023
     Fe     9      Px                   0.070     0.109    -0.039
     Fe     9      Py                   0.068     0.117    -0.049
     Fe     9      Pz                   0.085     0.153    -0.067
     Fe    10      Dzz                  0.899     0.449     0.450
     Fe    10      Dzy                  0.903     0.488     0.416
     Fe    10      Dzx                  0.952     0.293     0.659
     Fe    10      Dxx-yy               0.935     0.345     0.590
     Fe    10      Dxy                  0.876     0.507     0.369
     Fe    10      S                    0.339     0.361    -0.022
     Fe    10      Px                   0.068     0.107    -0.039
     Fe    10      Py                   0.074     0.122    -0.048
     Fe    10      Pz                   0.087     0.156    -0.070
     Fe    11      Dzz                  0.936     0.493     0.443
     Fe    11      Dzy                  0.874     0.469     0.405
     Fe    11      Dzx                  0.882     0.353     0.529
     Fe    11      Dxx-yy               0.918     0.348     0.569
     Fe    11      Dxy                  0.868     0.572     0.296
     Fe    11      S                    0.327     0.306     0.021
     Fe    11      Px                   0.064     0.101    -0.037
     Fe    11      Py                   0.092     0.105    -0.013
     Fe    11      Pz                   0.038     0.033     0.005
     Fe    12      Dzz                  0.903     0.444     0.458
     Fe    12      Dzy                  0.909     0.479     0.430
     Fe    12      Dzx                  0.948     0.295     0.653
     Fe    12      Dxx-yy               0.934     0.350     0.583
     Fe    12      Dxy                  0.886     0.494     0.392
     Fe    12      S                    0.333     0.356    -0.024
     Fe    12      Px                   0.072     0.109    -0.038
     Fe    12      Py                   0.076     0.130    -0.054
     Fe    12      Pz                   0.097     0.165    -0.068
     Fe    13      Dzz                  0.947     0.492     0.455
     Fe    13      Dzy                  0.883     0.464     0.419
     Fe    13      Dzx                  0.931     0.294     0.637
     Fe    13      Dxx-yy               0.947     0.383     0.564
     Fe    13      Dxy                  0.841     0.490     0.351
     Fe    13      S                    0.329     0.296     0.033
     Fe    13      Px                   0.091     0.117    -0.026
     Fe    13      Py                   0.094     0.099    -0.004
     Fe    13      Pz                   0.044     0.021     0.023
     Fe    14      Dzz                  0.907     0.433     0.474
     Fe    14      Dzy                  0.904     0.484     0.420
     Fe    14      Dzx                  0.957     0.286     0.671
     Fe    14      Dxx-yy               0.937     0.345     0.591
     Fe    14      Dxy                  0.882     0.509     0.373
     Fe    14      S                    0.347     0.365    -0.017
     Fe    14      Px                   0.072     0.110    -0.038
     Fe    14      Py                   0.080     0.129    -0.050
     Fe    14      Pz                   0.117     0.179    -0.062
     Fe    15      Dzz                  0.920     0.525     0.395
     Fe    15      Dzy                  0.863     0.538     0.325
     Fe    15      Dzx                  0.879     0.356     0.523
     Fe    15      Dxx-yy               0.901     0.368     0.533
     Fe    15      Dxy                  0.850     0.558     0.292
     Fe    15      S                    0.291     0.274     0.017
     Fe    15      Px                   0.079     0.108    -0.029
     Fe    15      Py                   0.046     0.053    -0.007
     Fe    15      Pz                   0.042     0.036     0.006
     Fe    16      Dzz                  0.954     0.438     0.516
     Fe    16      Dzy                  0.888     0.471     0.417
     Fe    16      Dzx                  0.933     0.301     0.632
     Fe    16      Dxx-yy               0.924     0.336     0.588
     Fe    16      Dxy                  0.875     0.551     0.324
     Fe    16      S                    0.331     0.298     0.034
     Fe    16      Px                   0.061     0.083    -0.022
     Fe    16      Py                   0.082     0.089    -0.007
     Fe    16      Pz                   0.053     0.037     0.016
     Fe    17      Dzz                  0.899     0.447     0.452
     Fe    17      Dzy                  0.906     0.485     0.421
     Fe    17      Dzx                  0.951     0.296     0.655
     Fe    17      Dxx-yy               0.934     0.344     0.590
     Fe    17      Dxy                  0.877     0.511     0.366
     Fe    17      S                    0.335     0.359    -0.024
     Fe    17      Px                   0.067     0.105    -0.038
     Fe    17      Py                   0.074     0.124    -0.050
     Fe    17      Pz                   0.090     0.161    -0.071
     Fe    18      Dzz                  0.899     0.443     0.456
     Fe    18      Dzy                  0.905     0.484     0.420
     Fe    18      Dzx                  0.951     0.299     0.651
     Fe    18      Dxx-yy               0.937     0.347     0.590
     Fe    18      Dxy                  0.883     0.497     0.387
     Fe    18      S                    0.343     0.361    -0.018
     Fe    18      Px                   0.074     0.115    -0.040
     Fe    18      Py                   0.071     0.122    -0.050
     Fe    18      Pz                   0.080     0.148    -0.068
     Fe    19      Dzz                  0.947     0.448     0.499
     Fe    19      Dzy                  0.850     0.524     0.327
     Fe    19      Dzx                  0.905     0.347     0.558
     Fe    19      Dxx-yy               0.900     0.356     0.544
     Fe    19      Dxy                  0.876     0.564     0.312
     Fe    19      S                    0.328     0.308     0.020
     Fe    19      Px                   0.072     0.105    -0.033
     Fe    19      Py                   0.084     0.098    -0.014
     Fe    19      Pz                   0.041     0.031     0.011
     Fe    20      Dzz                  0.951     0.476     0.475
     Fe    20      Dzy                  0.887     0.458     0.429
     Fe    20      Dzx                  0.935     0.296     0.639
     Fe    20      Dxx-yy               0.924     0.346     0.578
     Fe    20      Dxy                  0.863     0.543     0.320
     Fe    20      S                    0.328     0.295     0.033
     Fe    20      Px                   0.056     0.074    -0.018
     Fe    20      Py                   0.090     0.095    -0.005
     Fe    20      Pz                   0.054     0.037     0.017
     Fe    21      Dzz                  0.900     0.446     0.454
     Fe    21      Dzy                  0.904     0.485     0.419
     Fe    21      Dzx                  0.948     0.301     0.647
     Fe    21      Dxx-yy               0.933     0.343     0.590
     Fe    21      Dxy                  0.875     0.517     0.358
     Fe    21      S                    0.335     0.360    -0.025
     Fe    21      Px                   0.067     0.108    -0.040
     Fe    21      Py                   0.074     0.124    -0.050
     Fe    21      Pz                   0.096     0.165    -0.069
     Fe    22      Dzz                  0.903     0.438     0.465
     Fe    22      Dzy                  0.903     0.490     0.412
     Fe    22      Dzx                  0.951     0.296     0.656
     Fe    22      Dxx-yy               0.938     0.345     0.593
     Fe    22      Dxy                  0.881     0.499     0.382
     Fe    22      S                    0.339     0.358    -0.018
     Fe    22      Px                   0.072     0.113    -0.040
     Fe    22      Py                   0.072     0.123    -0.051
     Fe    22      Pz                   0.082     0.150    -0.068
     Fe    23      Dzz                  0.931     0.502     0.429
     Fe    23      Dzy                  0.890     0.553     0.337
     Fe    23      Dzx                  0.872     0.357     0.516
     Fe    23      Dxx-yy               0.881     0.350     0.531
     Fe    23      Dxy                  0.861     0.571     0.290
     Fe    23      S                    0.276     0.260     0.016
     Fe    23      Px                   0.065     0.091    -0.026
     Fe    23      Py                   0.023     0.027    -0.004
     Fe    23      Pz                   0.056     0.057    -0.000
     Fe    24      Dzz                  0.902     0.450     0.452
     Fe    24      Dzy                  0.911     0.468     0.443
     Fe    24      Dzx                  0.950     0.297     0.653
     Fe    24      Dxx-yy               0.934     0.344     0.590
     Fe    24      Dxy                  0.879     0.511     0.369
     Fe    24      S                    0.334     0.356    -0.023
     Fe    24      Px                   0.066     0.104    -0.038
     Fe    24      Py                   0.076     0.124    -0.049
     Fe    24      Pz                   0.088     0.160    -0.072
     Fe    25      Dzz                  0.900     0.456     0.444
     Fe    25      Dzy                  0.906     0.494     0.412
     Fe    25      Dzx                  0.951     0.299     0.651
     Fe    25      Dxx-yy               0.931     0.354     0.577
     Fe    25      Dxy                  0.872     0.499     0.373
     Fe    25      S                    0.333     0.361    -0.028
     Fe    25      Px                   0.069     0.110    -0.041
     Fe    25      Py                   0.076     0.136    -0.060
     Fe    25      Pz                   0.079     0.143    -0.064
     Fe    26      Dzz                  0.949     0.350     0.600
     Fe    26      Dzy                  0.942     0.438     0.504
     Fe    26      Dzx                  0.958     0.312     0.646
     Fe    26      Dxx-yy               0.926     0.370     0.555
     Fe    26      Dxy                  0.882     0.528     0.354
     Fe    26      S                    0.407     0.387     0.020
     Fe    26      Px                   0.078     0.089    -0.011
     Fe    26      Py                   0.118     0.177    -0.059
     Fe    26      Pz                   0.058     0.064    -0.006
     Fe    27      Dzz                  0.901     0.456     0.445
     Fe    27      Dzy                  0.906     0.492     0.414
     Fe    27      Dzx                  0.949     0.298     0.651
     Fe    27      Dxx-yy               0.932     0.353     0.579
     Fe    27      Dxy                  0.871     0.503     0.367
     Fe    27      S                    0.332     0.359    -0.028
     Fe    27      Px                   0.069     0.109    -0.041
     Fe    27      Py                   0.076     0.136    -0.060
     Fe    27      Pz                   0.077     0.140    -0.063
     Fe    28      Dzz                  0.900     0.456     0.444
     Fe    28      Dzy                  0.908     0.491     0.416
     Fe    28      Dzx                  0.950     0.299     0.651
     Fe    28      Dxx-yy               0.932     0.356     0.576
     Fe    28      Dxy                  0.874     0.495     0.378
     Fe    28      S                    0.333     0.361    -0.028
     Fe    28      Px                   0.070     0.111    -0.041
     Fe    28      Py                   0.077     0.138    -0.062
     Fe    28      Pz                   0.077     0.141    -0.063
     Fe    29      Dzz                  0.950     0.347     0.603
     Fe    29      Dzy                  0.943     0.440     0.503
     Fe    29      Dzx                  0.960     0.308     0.652
     Fe    29      Dxx-yy               0.928     0.366     0.562
     Fe    29      Dxy                  0.881     0.532     0.349
     Fe    29      S                    0.407     0.386     0.021
     Fe    29      Px                   0.079     0.087    -0.008
     Fe    29      Py                   0.119     0.178    -0.059
     Fe    29      Pz                   0.059     0.064    -0.005
     Fe    30      Dzz                  0.951     0.349     0.602
     Fe    30      Dzy                  0.943     0.435     0.508
     Fe    30      Dzx                  0.958     0.312     0.647
     Fe    30      Dxx-yy               0.927     0.368     0.559
     Fe    30      Dxy                  0.882     0.529     0.353
     Fe    30      S                    0.407     0.386     0.021
     Fe    30      Px                   0.080     0.089    -0.010
     Fe    30      Py                   0.118     0.178    -0.060
     Fe    30      Pz                   0.059     0.064    -0.005
     Fe    31      Dzz                  0.900     0.457     0.443
     Fe    31      Dzy                  0.906     0.494     0.412
     Fe    31      Dzx                  0.948     0.300     0.649
     Fe    31      Dxx-yy               0.931     0.355     0.576
     Fe    31      Dxy                  0.871     0.503     0.368
     Fe    31      S                    0.332     0.361    -0.029
     Fe    31      Px                   0.069     0.110    -0.041
     Fe    31      Py                   0.076     0.136    -0.061
     Fe    31      Pz                   0.076     0.139    -0.063
     Fe    32      Dzz                  0.901     0.455     0.446
     Fe    32      Dzy                  0.905     0.496     0.408
     Fe    32      Dzx                  0.950     0.298     0.652
     Fe    32      Dxx-yy               0.932     0.354     0.578
     Fe    32      Dxy                  0.871     0.499     0.372
     Fe    32      S                    0.333     0.361    -0.028
     Fe    32      Px                   0.070     0.111    -0.041
     Fe    32      Py                   0.076     0.137    -0.060
     Fe    32      Pz                   0.076     0.139    -0.064
     Fe    33      Dzz                  0.949     0.351     0.598
     Fe    33      Dzy                  0.944     0.436     0.508
     Fe    33      Dzx                  0.959     0.311     0.649
     Fe    33      Dxx-yy               0.927     0.370     0.557
     Fe    33      Dxy                  0.883     0.526     0.356
     Fe    33      S                    0.405     0.386     0.019
     Fe    33      Px                   0.080     0.089    -0.009
     Fe    33      Py                   0.120     0.179    -0.059
     Fe    33      Pz                   0.058     0.063    -0.005
     Fe    34      Dzz                  0.951     0.348     0.603
     Fe    34      Dzy                  0.942     0.439     0.503
     Fe    34      Dzx                  0.958     0.311     0.648
     Fe    34      Dxx-yy               0.927     0.366     0.561
     Fe    34      Dxy                  0.880     0.533     0.348
     Fe    34      S                    0.407     0.386     0.021
     Fe    34      Px                   0.079     0.089    -0.009
     Fe    34      Py                   0.119     0.178    -0.059
     Fe    34      Pz                   0.058     0.063    -0.005
     Fe    35      Dzz                  0.899     0.460     0.439
     Fe    35      Dzy                  0.906     0.489     0.418
     Fe    35      Dzx                  0.949     0.298     0.651
     Fe    35      Dxx-yy               0.931     0.356     0.575
     Fe    35      Dxy                  0.873     0.500     0.373
     Fe    35      S                    0.332     0.361    -0.028
     Fe    35      Px                   0.069     0.110    -0.041
     Fe    35      Py                   0.076     0.136    -0.060
     Fe    35      Pz                   0.076     0.139    -0.063
     Fe    36      Dzz                  0.950     0.349     0.601
     Fe    36      Dzy                  0.943     0.436     0.507
     Fe    36      Dzx                  0.960     0.309     0.651
     Fe    36      Dxx-yy               0.927     0.369     0.559
     Fe    36      Dxy                  0.882     0.529     0.353
     Fe    36      S                    0.407     0.386     0.021
     Fe    36      Px                   0.079     0.088    -0.009
     Fe    36      Py                   0.119     0.178    -0.059
     Fe    36      Pz                   0.059     0.063    -0.005
     Fe    37      Dzz                  0.900     0.456     0.444
     Fe    37      Dzy                  0.909     0.487     0.421
     Fe    37      Dzx                  0.950     0.299     0.651
     Fe    37      Dxx-yy               0.931     0.354     0.578
     Fe    37      Dxy                  0.872     0.502     0.370
     Fe    37      S                    0.332     0.360    -0.029
     Fe    37      Px                   0.068     0.108    -0.040
     Fe    37      Py                   0.075     0.135    -0.060
     Fe    37      Pz                   0.078     0.143    -0.065
     Fe    38      Dzz                  0.949     0.353     0.596
     Fe    38      Dzy                  0.943     0.436     0.506
     Fe    38      Dzx                  0.959     0.308     0.651
     Fe    38      Dxx-yy               0.925     0.371     0.554
     Fe    38      Dxy                  0.882     0.529     0.353
     Fe    38      S                    0.408     0.386     0.021
     Fe    38      Px                   0.079     0.087    -0.009
     Fe    38      Py                   0.119     0.178    -0.059
     Fe    38      Pz                   0.057     0.062    -0.005
     Fe    39      Dzz                  0.900     0.459     0.441
     Fe    39      Dzy                  0.903     0.497     0.406
     Fe    39      Dzx                  0.949     0.298     0.652
     Fe    39      Dxx-yy               0.932     0.354     0.578
     Fe    39      Dxy                  0.871     0.502     0.369
     Fe    39      S                    0.333     0.361    -0.029
     Fe    39      Px                   0.070     0.110    -0.041
     Fe    39      Py                   0.077     0.136    -0.059
     Fe    39      Pz                   0.075     0.138    -0.063
     Fe    40      Dzz                  0.900     0.457     0.443
     Fe    40      Dzy                  0.910     0.486     0.424
     Fe    40      Dzx                  0.949     0.300     0.649
     Fe    40      Dxx-yy               0.931     0.355     0.576
     Fe    40      Dxy                  0.873     0.499     0.373
     Fe    40      S                    0.331     0.359    -0.029
     Fe    40      Px                   0.069     0.110    -0.041
     Fe    40      Py                   0.076     0.137    -0.061
     Fe    40      Pz                   0.078     0.143    -0.064
     Fe    41      Dzz                  0.951     0.347     0.604
     Fe    41      Dzy                  0.943     0.439     0.503
     Fe    41      Dzx                  0.959     0.311     0.647
     Fe    41      Dxx-yy               0.928     0.366     0.562
     Fe    41      Dxy                  0.879     0.532     0.348
     Fe    41      S                    0.405     0.386     0.019
     Fe    41      Px                   0.079     0.088    -0.009
     Fe    41      Py                   0.118     0.177    -0.059
     Fe    41      Pz                   0.060     0.065    -0.005
     Fe    42      Dzz                  0.950     0.351     0.598
     Fe    42      Dzy                  0.942     0.438     0.504
     Fe    42      Dzx                  0.959     0.309     0.649
     Fe    42      Dxx-yy               0.926     0.369     0.557
     Fe    42      Dxy                  0.882     0.530     0.352
     Fe    42      S                    0.407     0.386     0.021
     Fe    42      Px                   0.079     0.088    -0.009
     Fe    42      Py                   0.119     0.179    -0.060
     Fe    42      Pz                   0.058     0.063    -0.005
     Fe    43      Dzz                  0.900     0.456     0.443
     Fe    43      Dzy                  0.909     0.495     0.414
     Fe    43      Dzx                  0.949     0.299     0.649
     Fe    43      Dxx-yy               0.932     0.353     0.579
     Fe    43      Dxy                  0.872     0.500     0.372
     Fe    43      S                    0.333     0.362    -0.029
     Fe    43      Px                   0.069     0.111    -0.041
     Fe    43      Py                   0.077     0.137    -0.061
     Fe    43      Pz                   0.073     0.136    -0.062
     Fe    44      Dzz                  0.901     0.455     0.447
     Fe    44      Dzy                  0.908     0.489     0.419
     Fe    44      Dzx                  0.950     0.300     0.650
     Fe    44      Dxx-yy               0.932     0.353     0.580
     Fe    44      Dxy                  0.870     0.503     0.367
     Fe    44      S                    0.331     0.359    -0.028
     Fe    44      Px                   0.069     0.109    -0.041
     Fe    44      Py                   0.076     0.135    -0.059
     Fe    44      Pz                   0.079     0.143    -0.065
     Fe    45      Dzz                  0.950     0.350     0.601
     Fe    45      Dzy                  0.944     0.431     0.513
     Fe    45      Dzx                  0.959     0.312     0.646
     Fe    45      Dxx-yy               0.927     0.370     0.558
     Fe    45      Dxy                  0.883     0.527     0.356
     Fe    45      S                    0.406     0.386     0.019
     Fe    45      Px                   0.080     0.090    -0.010
     Fe    45      Py                   0.119     0.178    -0.059
     Fe    45      Pz                   0.059     0.064    -0.005
     Fe    46      Dzz                  0.951     0.349     0.602
     Fe    46      Dzy                  0.942     0.439     0.503
     Fe    46      Dzx                  0.959     0.308     0.651
     Fe    46      Dxx-yy               0.927     0.366     0.561
     Fe    46      Dxy                  0.881     0.532     0.348
     Fe    46      S                    0.408     0.386     0.022
     Fe    46      Px                   0.079     0.088    -0.009
     Fe    46      Py                   0.119     0.178    -0.059
     Fe    46      Pz                   0.058     0.062    -0.005
     Fe    47      Dzz                  0.899     0.461     0.438
     Fe    47      Dzy                  0.904     0.493     0.411
     Fe    47      Dzx                  0.949     0.298     0.651
     Fe    47      Dxx-yy               0.931     0.356     0.575
     Fe    47      Dxy                  0.873     0.498     0.375
     Fe    47      S                    0.333     0.362    -0.029
     Fe    47      Px                   0.070     0.111    -0.041
     Fe    47      Py                   0.076     0.137    -0.061
     Fe    47      Pz                   0.075     0.138    -0.063
     Fe    48      Dzz                  0.950     0.348     0.602
     Fe    48      Dzy                  0.943     0.436     0.507
     Fe    48      Dzx                  0.959     0.312     0.646
     Fe    48      Dxx-yy               0.927     0.369     0.558
     Fe    48      Dxy                  0.881     0.529     0.352
     Fe    48      S                    0.406     0.387     0.019
     Fe    48      Px                   0.079     0.089    -0.010
     Fe    48      Py                   0.118     0.177    -0.060
     Fe    48      Pz                   0.060     0.065    -0.006
  ---------------------------------------------------------------
                           Total:     255.502   142.497   113.004
  ---------------------------------------------------------------
 
     Atomic Populations (Mulliken)
     -----------------------------
Species          Ion Spin      s       p       d       f      Total   Charge(e)   Spin(hbar/2)
==============================================================================================
  H               1   up:     0.575   0.000   0.000   0.000   0.575    -0.219       -0.069
                  1   dn:     0.644   0.000   0.000   0.000   0.644
  H               2   up:     0.565   0.000   0.000   0.000   0.565    -0.208       -0.078
                  2   dn:     0.643   0.000   0.000   0.000   0.643
  H               3   up:     0.648   0.000   0.000   0.000   0.648    -0.354       -0.057
                  3   dn:     0.706   0.000   0.000   0.000   0.706
  H               4   up:     0.571   0.000   0.000   0.000   0.571    -0.225       -0.083
                  4   dn:     0.654   0.000   0.000   0.000   0.654
  H               5   up:     0.594   0.000   0.000   0.000   0.594    -0.256       -0.068
                  5   dn:     0.662   0.000   0.000   0.000   0.662
  H               6   up:     0.592   0.000   0.000   0.000   0.592    -0.259       -0.074
                  6   dn:     0.667   0.000   0.000   0.000   0.667
  H               7   up:     0.610   0.000   0.000   0.000   0.610    -0.279       -0.059
                  7   dn:     0.669   0.000   0.000   0.000   0.669
  H               8   up:     0.595   0.000   0.000   0.000   0.595    -0.261       -0.070
                  8   dn:     0.665   0.000   0.000   0.000   0.665
  H               9   up:     0.602   0.000   0.000   0.000   0.602    -0.264       -0.059
                  9   dn:     0.661   0.000   0.000   0.000   0.661
  H              10   up:     0.606   0.000   0.000   0.000   0.606    -0.279       -0.067
                 10   dn:     0.673   0.000   0.000   0.000   0.673
  H              11   up:     0.601   0.000   0.000   0.000   0.601    -0.271       -0.068
                 11   dn:     0.669   0.000   0.000   0.000   0.669
  H              12   up:     0.600   0.000   0.000   0.000   0.600    -0.268       -0.069
                 12   dn:     0.669   0.000   0.000   0.000   0.669
  H              13   up:     0.598   0.000   0.000   0.000   0.598    -0.254       -0.058
                 13   dn:     0.656   0.000   0.000   0.000   0.656
  H              14   up:     0.596   0.000   0.000   0.000   0.596    -0.263       -0.071
                 14   dn:     0.667   0.000   0.000   0.000   0.667
  Fe              1   up:     0.294   0.156   4.489   0.000   4.940     0.387        2.266
                  1   dn:     0.265   0.154   2.255   0.000   2.674
  Fe              2   up:     0.339   0.229   4.557   0.000   5.124     0.038        2.286
                  2   dn:     0.360   0.382   2.096   0.000   2.838
  Fe              3   up:     0.332   0.199   4.506   0.000   5.037     0.226        2.300
                  3   dn:     0.307   0.234   2.196   0.000   2.737
  Fe              4   up:     0.331   0.195   4.519   0.000   5.045     0.249        2.339
                  4   dn:     0.305   0.227   2.173   0.000   2.706
  Fe              5   up:     0.332   0.247   4.581   0.000   5.161     0.018        2.339
                  5   dn:     0.355   0.406   2.060   0.000   2.822
  Fe              6   up:     0.339   0.227   4.563   0.000   5.129     0.036        2.294
                  6   dn:     0.362   0.387   2.086   0.000   2.835
  Fe              7   up:     0.333   0.207   4.544   0.000   5.084     0.238        2.406
                  7   dn:     0.304   0.234   2.139   0.000   2.678
  Fe              8   up:     0.331   0.202   4.522   0.000   5.055     0.237        2.347
                  8   dn:     0.306   0.232   2.170   0.000   2.708
  Fe              9   up:     0.338   0.223   4.559   0.000   5.120     0.047        2.286
                  9   dn:     0.361   0.379   2.094   0.000   2.834
  Fe             10   up:     0.339   0.229   4.566   0.000   5.134     0.038        2.305
                 10   dn:     0.361   0.385   2.082   0.000   2.828
  Fe             11   up:     0.327   0.194   4.477   0.000   4.999     0.219        2.217
                 11   dn:     0.306   0.240   2.236   0.000   2.782
  Fe             12   up:     0.333   0.244   4.579   0.000   5.156     0.021        2.334
                 12   dn:     0.356   0.404   2.063   0.000   2.823
  Fe             13   up:     0.329   0.230   4.550   0.000   5.108     0.236        2.452
                 13   dn:     0.296   0.237   2.124   0.000   2.656
  Fe             14   up:     0.347   0.269   4.588   0.000   5.204    -0.044        2.364
                 14   dn:     0.365   0.418   2.058   0.000   2.840
  Fe             15   up:     0.291   0.167   4.413   0.000   4.872     0.313        2.056
                 15   dn:     0.274   0.197   2.344   0.000   2.815
  Fe             16   up:     0.331   0.196   4.573   0.000   5.100     0.297        2.497
                 16   dn:     0.298   0.209   2.097   0.000   2.603
  Fe             17   up:     0.335   0.232   4.567   0.000   5.133     0.035        2.302
                 17   dn:     0.359   0.390   2.083   0.000   2.831
  Fe             18   up:     0.343   0.225   4.575   0.000   5.143     0.042        2.328
                 18   dn:     0.361   0.384   2.070   0.000   2.815
  Fe             19   up:     0.328   0.197   4.479   0.000   5.004     0.216        2.224
                 19   dn:     0.308   0.233   2.239   0.000   2.780
  Fe             20   up:     0.328   0.200   4.560   0.000   5.088     0.291        2.468
                 20   dn:     0.295   0.206   2.120   0.000   2.620
  Fe             21   up:     0.335   0.237   4.560   0.000   5.132     0.020        2.285
                 21   dn:     0.360   0.397   2.091   0.000   2.848
  Fe             22   up:     0.339   0.226   4.576   0.000   5.141     0.048        2.330
                 22   dn:     0.358   0.386   2.068   0.000   2.811
  Fe             23   up:     0.276   0.144   4.436   0.000   4.855     0.378        2.089
                 23   dn:     0.260   0.174   2.332   0.000   2.766
  Fe             24   up:     0.334   0.229   4.576   0.000   5.139     0.046        2.325
                 24   dn:     0.356   0.388   2.070   0.000   2.814
  Fe             25   up:     0.333   0.224   4.560   0.000   5.117     0.031        2.265
                 25   dn:     0.361   0.389   2.102   0.000   2.852
  Fe             26   up:     0.407   0.254   4.658   0.000   5.319    -0.035        2.603
                 26   dn:     0.387   0.330   1.998   0.000   2.716
  Fe             27   up:     0.332   0.222   4.559   0.000   5.113     0.039        2.266
                 27   dn:     0.359   0.385   2.103   0.000   2.847
  Fe             28   up:     0.333   0.224   4.563   0.000   5.120     0.031        2.271
                 28   dn:     0.361   0.390   2.098   0.000   2.849
  Fe             29   up:     0.407   0.256   4.662   0.000   5.325    -0.032        2.617
                 29   dn:     0.386   0.329   1.993   0.000   2.707
  Fe             30   up:     0.407   0.257   4.661   0.000   5.325    -0.035        2.616
                 30   dn:     0.386   0.331   1.992   0.000   2.710
  Fe             31   up:     0.332   0.220   4.556   0.000   5.109     0.037        2.254
                 31   dn:     0.361   0.386   2.108   0.000   2.855
  Fe             32   up:     0.333   0.222   4.559   0.000   5.114     0.036        2.263
                 32   dn:     0.361   0.387   2.103   0.000   2.851
  Fe             33   up:     0.405   0.258   4.661   0.000   5.324    -0.034        2.614
                 33   dn:     0.386   0.331   1.993   0.000   2.710
  Fe             34   up:     0.407   0.256   4.659   0.000   5.322    -0.034        2.610
                 34   dn:     0.386   0.330   1.996   0.000   2.712
  Fe             35   up:     0.332   0.221   4.558   0.000   5.112     0.039        2.262
                 35   dn:     0.361   0.385   2.104   0.000   2.849
  Fe             36   up:     0.407   0.257   4.662   0.000   5.326    -0.033        2.619
                 36   dn:     0.386   0.329   1.991   0.000   2.707
  Fe             37   up:     0.332   0.221   4.562   0.000   5.115     0.041        2.270
                 37   dn:     0.360   0.385   2.099   0.000   2.845
  Fe             38   up:     0.408   0.255   4.658   0.000   5.321    -0.033        2.610
                 38   dn:     0.386   0.328   1.998   0.000   2.712
  Fe             39   up:     0.333   0.222   4.555   0.000   5.110     0.035        2.255
                 39   dn:     0.361   0.384   2.109   0.000   2.855
  Fe             40   up:     0.331   0.223   4.563   0.000   5.117     0.037        2.271
                 40   dn:     0.359   0.389   2.097   0.000   2.846
  Fe             41   up:     0.405   0.256   4.659   0.000   5.321    -0.032        2.609
                 41   dn:     0.386   0.330   1.996   0.000   2.712
  Fe             42   up:     0.407   0.256   4.658   0.000   5.321    -0.035        2.607
                 42   dn:     0.386   0.330   1.998   0.000   2.714
  Fe             43   up:     0.333   0.220   4.561   0.000   5.114     0.037        2.264
                 43   dn:     0.362   0.384   2.104   0.000   2.849
  Fe             44   up:     0.331   0.223   4.561   0.000   5.116     0.038        2.269
                 44   dn:     0.359   0.388   2.099   0.000   2.846
  Fe             45   up:     0.406   0.258   4.663   0.000   5.327    -0.036        2.619
                 45   dn:     0.386   0.332   1.990   0.000   2.708
  Fe             46   up:     0.408   0.256   4.660   0.000   5.323    -0.033        2.614
                 46   dn:     0.386   0.328   1.995   0.000   2.710
  Fe             47   up:     0.333   0.221   4.557   0.000   5.111     0.035        2.257
                 47   dn:     0.362   0.385   2.107   0.000   2.854
  Fe             48   up:     0.406   0.256   4.660   0.000   5.322    -0.035        2.610
                 48   dn:     0.387   0.332   1.994   0.000   2.712
==============================================================================================
 
                 Bond                   Population        Spin       Length (A)
================================================================================
              H 3  -- Fe 1                   0.15         0.02          1.49488
              H 3  -- Fe 23                  0.09         0.02          1.55728
              H 2  -- Fe 15                  0.43         0.02          1.59312
              H 4  -- Fe 11                  0.42         0.01          1.61475
              H 1  -- H 4                    0.03         0.02          1.62245
              H 1  -- Fe 23                  0.39         0.01          1.63272
              H 3  -- Fe 15                  0.11         0.01          1.65881
              H 6  -- Fe 3                   0.37         0.01          1.65929
              H 7  -- Fe 1                   0.33         0.01          1.66726
              H 2  -- Fe 13                  0.35         0.01          1.68773
              H 13 -- Fe 19                  0.34         0.02          1.69972
[...]
             Fe 39 -- Fe 40                  0.24        -0.02          2.45572
             Fe 28 -- Fe 43                  0.24        -0.01          2.45581
             Fe 35 -- Fe 44                  0.24        -0.02          2.45641
             Fe 44 -- Fe 47                  0.24        -0.02          2.45645
             Fe 10 -- Fe 12                  0.25        -0.01          2.45696
             Fe 28 -- Fe 39                  0.24        -0.02          2.45720
             Fe 9  -- Fe 32                  0.21        -0.00          2.45729
             Fe 27 -- Fe 40                  0.24        -0.02          2.45731
             Fe 9  -- Fe 18                  0.25        -0.01          2.45742
             Fe 16 -- Fe 19                  0.12        -0.02          2.45785
             Fe 7  -- Fe 20                  0.13        -0.01          2.45811
             Fe 32 -- Fe 47                  0.24        -0.02          2.45817
             Fe 12 -- Fe 22                  0.24        -0.01          2.45860
             Fe 22 -- Fe 47                  0.19         0.00          2.45898
             Fe 2  -- Fe 3                   0.14        -0.01          2.45918
              H 11 -- H 12                   0.01         0.00          2.45938
             Fe 3  -- Fe 16                  0.14        -0.02          2.45942
             Fe 22 -- Fe 24                  0.24        -0.01          2.45955
             Fe 46 -- Fe 47                  0.02         0.03          2.45957
             Fe 11 -- Fe 20                  0.21        -0.04          2.45974
             Fe 18 -- Fe 43                  0.21        -0.00          2.45975
             Fe 38 -- Fe 39                  0.02         0.03          2.45984
             Fe 32 -- Fe 33                  0.02         0.03          2.46004
             Fe 5  -- Fe 18                  0.24        -0.01          2.46010
             Fe 30 -- Fe 31                  0.02         0.03          2.46019
             Fe 26 -- Fe 27                  0.02         0.03          2.46079
             Fe 12 -- Fe 25                  0.20        -0.00          2.46132
             Fe 3  -- Fe 13                  0.13        -0.02          2.46138
              H 10 -- H 11                   0.01         0.00          2.46190
             Fe 6  -- Fe 7                   0.13        -0.01          2.46208
             Fe 9  -- Fe 22                  0.24        -0.01          2.46213
             Fe 34 -- Fe 35                  0.02         0.03          2.46258
             Fe 17 -- Fe 18                  0.27        -0.02          2.46315
             Fe 6  -- Fe 31                  0.20        -0.00          2.46346
             Fe 28 -- Fe 29                  0.02         0.03          2.46357
             Fe 25 -- Fe 36                  0.02         0.03          2.46364
             Fe 5  -- Fe 6                   0.25        -0.01          2.46409
             Fe 37 -- Fe 48                  0.03         0.03          2.46447
             Fe 10 -- Fe 11                  0.14        -0.02          2.46514
             Fe 14 -- Fe 47                  0.21        -0.00          2.46602
             Fe 40 -- Fe 41                  0.03         0.02          2.46664
             Fe 44 -- Fe 45                  0.03         0.03          2.46747
             Fe 10 -- Fe 35                  0.21        -0.00          2.46829
             Fe 4  -- Fe 5                   0.13        -0.01          2.46882
             Fe 16 -- Fe 17                  0.11        -0.01          2.46922
              H 9  -- H 10                   0.01         0.00          2.47046
             Fe 9  -- Fe 28                  0.21        -0.00          2.47067
             Fe 21 -- Fe 44                  0.22        -0.01          2.47190
             Fe 2  -- Fe 27                  0.21        -0.00          2.47288
             Fe 24 -- Fe 37                  0.21        -0.00          2.47379
             Fe 18 -- Fe 39                  0.20        -0.00          2.47458
             Fe 20 -- Fe 24                  0.14        -0.02          2.47496
             Fe 5  -- Fe 14                  0.26        -0.01          2.47506
             Fe 5  -- Fe 28                  0.21        -0.00          2.47597
             Fe 22 -- Fe 43                  0.21        -0.00          2.47655
             Fe 17 -- Fe 40                  0.21        -0.00          2.47676
             Fe 19 -- Fe 20                  0.12        -0.02          2.47742
             Fe 5  -- Fe 25                  0.21        -0.00          2.47750
             Fe 11 -- Fe 13                  0.20        -0.03          2.47946
             Fe 2  -- Fe 35                  0.21        -0.00          2.47990
             Fe 12 -- Fe 32                  0.21        -0.00          2.48253
             Fe 6  -- Fe 27                  0.21        -0.00          2.48287
             Fe 10 -- Fe 31                  0.21        -0.00          2.48309
             Fe 13 -- Fe 17                  0.13        -0.01          2.48352
             Fe 17 -- Fe 37                  0.21        -0.00          2.48533
             Fe 12 -- Fe 14                  0.25        -0.01          2.48572
             Fe 21 -- Fe 40                  0.21        -0.00          2.48934
              H 5  -- H 7                    0.01         0.00          2.48991
              H 7  -- H 8                    0.01         0.00          2.49585
             Fe 24 -- Fe 44                  0.22        -0.01          2.49608
             Fe 13 -- Fe 15                  0.22        -0.05          2.49977
              H 10 -- H 14                   0.00         0.00          2.50011
             Fe 13 -- Fe 23                  0.13        -0.04          2.50050
             Fe 14 -- Fe 23                  0.06        -0.00          2.50190
             Fe 1  -- Fe 5                   0.18        -0.02          2.50220
             Fe 13 -- Fe 24                  0.10        -0.01          2.50617
             Fe 20 -- Fe 21                  0.14        -0.01          2.50947
              H 10 -- H 13                   0.01         0.00          2.51304
             Fe 14 -- Fe 15                  0.11        -0.01          2.52328
              H 2  -- H 8                    0.01         0.00          2.52343
             Fe 1  -- Fe 12                  0.18        -0.02          2.52415
             Fe 1  -- Fe 23                 -0.09        -0.01          2.55191
             Fe 1  -- Fe 15                 -0.11         0.00          2.55358
              H 2  -- Fe 16                  0.01        -0.01          2.56359
              H 13 -- Fe 8                   0.01        -0.00          2.57815
              H 3  -- Fe 13                  0.05        -0.00          2.60860
              H 5  -- Fe 11                  0.01        -0.00          2.63199
              H 6  -- H 9                   -0.00         0.00          2.63901
              H 7  -- Fe 13                  0.01        -0.00          2.64659
              H 9  -- Fe 4                  -0.01         0.00          2.64743
              H 8  -- Fe 3                   0.01        -0.00          2.64915
              H 4  -- H 10                   0.01         0.00          2.65745
              H 2  -- Fe 23                  0.01        -0.00          2.66227
              H 11 -- Fe 16                 -0.00        -0.00          2.69865
              H 9  -- H 13                   0.00         0.00          2.72173
              H 10 -- Fe 19                 -0.00        -0.00          2.72310
              H 14 -- Fe 20                 -0.02        -0.00          2.72673
              H 12 -- Fe 7                  -0.01         0.00          2.72946
              H 8  -- H 12                   0.01         0.00          2.74178
             Fe 15 -- Fe 19                  0.08        -0.01          2.75175
              H 5  -- H 12                   0.00         0.00          2.76259
              H 4  -- H 13                  -0.00        -0.00          2.76401
             Fe 4  -- Fe 8                   0.09        -0.02          2.77905
             Fe 19 -- Fe 23                  0.09        -0.02          2.78738
             Fe 9  -- Fe 19                  0.01         0.02          2.79390
             Fe 19 -- Fe 21                 -0.00         0.02          2.79649
              H 1  -- H 5                    0.01         0.00          2.79699
             Fe 4  -- Fe 6                  -0.00         0.02          2.79768
             Fe 7  -- Fe 21                  0.03         0.01          2.79978
             Fe 8  -- Fe 10                  0.01         0.01          2.80221
             Fe 1  -- Fe 2                   0.00         0.02          2.80370
              H 6  -- H 10                   0.01         0.00          2.80782
             Fe 3  -- Fe 17                  0.03         0.02          2.80951
              H 11 -- H 14                   0.00         0.00          2.80958
             Fe 39 -- Fe 41                 -0.07         0.02          2.81289
             Fe 14 -- Fe 37                  0.04         0.01          2.81315
             Fe 47 -- Fe 48                 -0.06         0.02          2.81375
             Fe 5  -- Fe 15                  0.07        -0.00          2.81476
             Fe 43 -- Fe 45                 -0.07         0.02          2.81490
             Fe 13 -- Fe 16                  0.03        -0.01          2.81653
             Fe 9  -- Fe 31                  0.04         0.01          2.81983
             Fe 11 -- Fe 24                  0.01         0.02          2.81998
             Fe 5  -- Fe 12                  0.14        -0.01          2.82161
             Fe 32 -- Fe 46                 -0.07         0.02          2.82400
             Fe 17 -- Fe 24                  0.17        -0.01          2.82421
             Fe 3  -- Fe 7                   0.09        -0.02          2.82428
             Fe 28 -- Fe 42                 -0.07         0.02          2.82456
             Fe 32 -- Fe 34                 -0.07         0.02          2.82461
             Fe 12 -- Fe 23                  0.08        -0.00          2.82480
             Fe 39 -- Fe 47                  0.08         0.00          2.82513
             Fe 2  -- Fe 10                  0.16        -0.01          2.82553
             Fe 29 -- Fe 36                  0.36        -0.04          2.82554
             Fe 28 -- Fe 30                 -0.07         0.02          2.82561
             Fe 40 -- Fe 44                  0.08         0.00          2.82598
             Fe 27 -- Fe 35                  0.08         0.00          2.82601
             Fe 6  -- Fe 10                  0.15        -0.01          2.82685
             Fe 13 -- Fe 20                 -0.04        -0.01          2.82699
             Fe 10 -- Fe 44                  0.05         0.01          2.82762
             Fe 12 -- Fe 35                  0.04         0.01          2.82800
             Fe 26 -- Fe 37                 -0.07         0.02          2.82816
             Fe 7  -- Fe 11                  0.08        -0.02          2.82931
             Fe 6  -- Fe 40                  0.04         0.01          2.83014
             Fe 33 -- Fe 43                 -0.07         0.02          2.83054
             Fe 18 -- Fe 28                  0.05         0.01          2.83070
             Fe 30 -- Fe 40                 -0.07         0.02          2.83080
             Fe 25 -- Fe 26                 -0.07         0.02          2.83080
             Fe 26 -- Fe 34                  0.36        -0.04          2.83115
             Fe 26 -- Fe 30                  0.36        -0.04          2.83116
             Fe 31 -- Fe 45                 -0.07         0.02          2.83125
             Fe 25 -- Fe 32                  0.08         0.00          2.83126
             Fe 14 -- Fe 18                  0.13        -0.00          2.83130
             Fe 35 -- Fe 48                 -0.07         0.02          2.83154
             Fe 38 -- Fe 42                  0.37        -0.04          2.83159
             Fe 41 -- Fe 48                  0.36        -0.04          2.83159
             Fe 38 -- Fe 46                  0.37        -0.04          2.83163
             Fe 25 -- Fe 38                 -0.07         0.02          2.83170
             Fe 25 -- Fe 28                  0.08         0.00          2.83178
             Fe 34 -- Fe 44                 -0.07         0.02          2.83239
             Fe 27 -- Fe 41                 -0.07         0.02          2.83304
             Fe 31 -- Fe 33                 -0.07         0.02          2.83305
             Fe 5  -- Fe 27                  0.04         0.01          2.83333
             Fe 18 -- Fe 22                  0.16        -0.01          2.83351
             Fe 41 -- Fe 45                  0.36        -0.04          2.83357
             Fe 45 -- Fe 48                  0.36        -0.04          2.83361
             Fe 14 -- Fe 22                  0.10         0.00          2.83436
             Fe 22 -- Fe 32                  0.04         0.01          2.83470
             Fe 23 -- Fe 24                  0.02         0.02          2.83512
             Fe 42 -- Fe 46                  0.36        -0.04          2.83556
             Fe 9  -- Fe 12                  0.15        -0.01          2.83562
             Fe 3  -- Fe 5                  -0.03         0.02          2.83571
             Fe 28 -- Fe 32                  0.07         0.01          2.83573
             Fe 37 -- Fe 44                  0.08         0.00          2.83584
             Fe 2  -- Fe 37                  0.04         0.01          2.83595
             Fe 43 -- Fe 47                  0.08         0.00          2.83605
             Fe 31 -- Fe 35                  0.08         0.00          2.83608
             Fe 35 -- Fe 36                 -0.07         0.02          2.83629
             Fe 30 -- Fe 34                  0.36        -0.04          2.83645
             Fe 29 -- Fe 39                 -0.07         0.02          2.83654
             Fe 29 -- Fe 33                  0.36        -0.04          2.83661
             Fe 33 -- Fe 36                  0.36        -0.04          2.83662
             Fe 27 -- Fe 31                  0.08         0.00          2.83668
             Fe 17 -- Fe 21                  0.13        -0.01          2.83672
             Fe 27 -- Fe 29                 -0.07         0.02          2.83673
             Fe 37 -- Fe 40                  0.08         0.00          2.83695
             Fe 36 -- Fe 47                 -0.07         0.02          2.83719
             Fe 22 -- Fe 44                  0.05         0.01          2.83735
             Fe 39 -- Fe 43                  0.08         0.00          2.83759
             Fe 21 -- Fe 24                  0.16        -0.01          2.83787
              H 7  -- H 11                   0.00        -0.00          2.83805
             Fe 18 -- Fe 40                  0.05         0.01          2.83933
             Fe 5  -- Fe 9                   0.14        -0.01          2.84165
             Fe 11 -- Fe 12                 -0.04         0.02          2.84486
             Fe 40 -- Fe 42                 -0.07         0.02          2.84538
             Fe 3  -- Fe 11                  0.08        -0.02          2.84560
             Fe 2  -- Fe 6                   0.16        -0.01          2.84642
             Fe 14 -- Fe 25                  0.04         0.01          2.84698
             Fe 44 -- Fe 46                 -0.07         0.02          2.84716
             Fe 8  -- Fe 22                 -0.07         0.02          2.84795
             Fe 15 -- Fe 17                  0.01         0.01          2.84993
             Fe 37 -- Fe 38                 -0.07         0.02          2.85230
              H 7  -- H 14                   0.00        -0.00          2.85310
             Fe 16 -- Fe 20                  0.10        -0.02          2.85591
             Fe 16 -- Fe 18                 -0.02         0.02          2.85630
             Fe 4  -- Fe 18                 -0.08         0.03          2.85930
             Fe 9  -- Fe 43                  0.04         0.01          2.86038
             Fe 1  -- Fe 8                   0.10        -0.02          2.86179
             Fe 1  -- Fe 4                   0.10        -0.03          2.86271
              H 6  -- Fe 15                 -0.09         0.00          2.86384
             Fe 6  -- Fe 16                 -0.04         0.02          2.86389
             Fe 17 -- Fe 39                  0.03         0.01          2.86410
             Fe 21 -- Fe 43                  0.03         0.01          2.86410
             Fe 17 -- Fe 27                  0.03         0.01          2.86548
             Fe 12 -- Fe 47                  0.03         0.01          2.86667
             Fe 24 -- Fe 47                  0.03         0.01          2.86688
             Fe 5  -- Fe 39                  0.03         0.01          2.86949
             Fe 6  -- Fe 28                  0.03         0.01          2.87017
             Fe 13 -- Fe 14                  0.03         0.01          2.87082
             Fe 24 -- Fe 35                  0.03         0.01          2.87150
             Fe 2  -- Fe 25                  0.04         0.01          2.87200
             Fe 7  -- Fe 9                  -0.05         0.02          2.87360
             Fe 10 -- Fe 32                  0.03         0.01          2.87507
             Fe 21 -- Fe 31                  0.03         0.01          2.87711
             Fe 20 -- Fe 22                 -0.05         0.02          2.87867
             Fe 2  -- Fe 13                 -0.08         0.02          2.89168
             Fe 10 -- Fe 20                 -0.05         0.02          2.89171
              H 13 -- Fe 22                 -0.16         0.02          2.92484
              H 1  -- Fe 11                 -0.15         0.01          2.93369
              H 9  -- Fe 18                 -0.18         0.02          2.95223
              H 3  -- Fe 12                 -0.02         0.01          2.95951
             Fe 15 -- Fe 23                 -0.10        -0.02          2.96077
              H 10 -- Fe 21                 -0.15         0.02          2.96581
              H 8  -- Fe 5                  -0.15         0.02          2.96759
              H 11 -- Fe 6                  -0.16         0.02          2.96852
              H 12 -- Fe 9                  -0.17         0.02          2.97055
              H 7  -- Fe 2                  -0.16         0.02          2.97385
              H 5  -- Fe 12                 -0.15         0.02          2.97561
              H 14 -- Fe 10                 -0.16         0.02          2.97629
              H 3  -- Fe 5                  -0.02         0.01          2.98573
              H 5  -- H 8                    0.00        -0.00          2.99679
             Fe 1  -- Fe 14                 -0.08         0.02          2.99739
              H 3  -- H 7                   -0.02        -0.00          2.99912
================================================================================
 

Writing analysis data to neb-calc_1-4.castep_bin

Writing model to neb-calc_1-4.check
 
 A BibTeX formatted list of references used in this run has been written to 
 neb-calc_1-4.bib
 
Initialisation time =     10.26 s
Calculation time    =  19425.14 s
Finalisation time   =      6.47 s
Total time          =  19441.87 s
Peak Memory Use     = 2082504 kB
  
Overall parallel efficiency rating: Excellent (90%)                             
  
Data was distributed by:-
G-vector (16-way); efficiency rating: Excellent (90%)                           
k-point (8-way); efficiency rating: Excellent (99%)                             
