 +-------------------------------------------------+
 |                                                 |
 |      CCC   AA    SSS  TTTTT  EEEEE  PPPP        |
 |     C     A  A  S       T    E      P   P       |
 |     C     AAAA   SS     T    EEE    PPPP        |
 |     C     A  A     S    T    E      P           |
 |      CCC  A  A  SSS     T    EEEEE  P           |
 |                                                 |
 +-------------------------------------------------+
 |                                                 |
 | Welcome to Academic Release CASTEP version 21.11|          
 | Ab Initio Total Energy Program                  |
 |                                                 |
 | Authors:                                        |
 | M. Segall, M. Probert, C. Pickard, P. Hasnip,   |
 | S. Clark, K. Refson, J. R. Yates, M. Payne      |
 |                                                 |
 | Contributors:                                   |
 | P. Lindan, P. Haynes, J. White, V. Milman,      |
 | N. Govind, M. Gibson, P. Tulip, V. Cocula,      |
 | B. Montanari, D. Quigley, M. Glover,            |
 | L. Bernasconi, A. Perlov, M. Plummer,           |
 | E. McNellis, J. Meyer, J. Gale, D. Jochym       |
 | J. Aarons, B. Walker, R. Gillen, D. Jones       |
 | T. Green, I. J. Bush, C. J. Armstrong,          |
 | E. J. Higgins, E. L. Brown, M. S. McFly,        |
 | J. Wilkins, B-C. Shih, P. J. P. Byrne,          |
 | R. J. Maurer, J. C. Womack, J. Dziedzic,        |
 | A. Bartok-Partay, L. LeBlanc                    |
 |                                                 |
 | Copyright (c) 2000 - 2021                       |
 |                                                 |
 |     Distributed under license from Cambridge    |
 |     Enterprise for academic use only.           |
 |                                                 |
 | Please cite                                     |
 |                                                 |
 |     "First principles methods using CASTEP"     |
 |                                                 |
 |         Zeitschrift fuer Kristallographie       |
 |           220(5-6) pp. 567-570 (2005)           |
 |                                                 |
 | S. J. Clark, M. D. Segall, C. J. Pickard,       |
 | P. J. Hasnip, M. J. Probert, K. Refson,         |
 | M. C. Payne                                     |
 |                                                 |
 |       in all publications arising from          |
 |              your use of CASTEP                 |
 |                                                 |
 +-------------------------------------------------+
 |                                                 |
 |              http://www.castep.org              |
 |                                                 |
 +-------------------------------------------------+
 
 
 
 Compiled for linux_x86_64_cray-XT on Tue, 01 Mar 2022 09:19:15 +0000
 from code version 7d4405a8a+  HEAD  Sat Nov 27 13:38:33 2021 +0000
 Compiler: Cray Fortran 12.0.3; Optimisation: fast
 MATHLIBS: LibSci (LAPACK version 3.6.1)
 FFT Lib : fftw3 version commercial-fftw-3.3.8-sse2-avx-avx2-avx2_128
 Fundamental constants values: CODATA 2014
 
 Run started: Mon, 27 Jun 2022 07:22:39 -0100
 Warning in parameters_read: presetting of magnetic moments on atoms cannot be guaranteed when metals_method /= density mixing
 
 Atomic calculation performed for H: 1s1
 
 Converged in 41 iterations to an ae energy of -12.488 eV
 
   ============================================================                
   | Pseudopotential Report - Date of generation 27-06-2022   |                
   ------------------------------------------------------------                
   | Element: H Ionic charge:  1.00 Level of theory: PBE      |                
   | Atomic Solver: Koelling-Harmon                           |                
   |                                                          |                
   |               Reference Electronic Structure             |                
   |         Orbital         Occupation         Energy        |                
   |            1s              1.000           -0.239        |                
   |                                                          |                
   |                 Pseudopotential Definition               |                
   |        Beta     l      e      Rc     scheme   norm       |                
   |          1      0   -0.239   0.599     qc      0         |                
   |          2      0    0.250   0.599     qc      0         |                
   |         loc     1    0.000   0.599     pn      0         |                
   |                                                          |                
   | Augmentation charge Rinner = 0.421                       |                
   | No partial core correction                               |                
   ------------------------------------------------------------                
   | "1|0.6|13|15|17|10(qc=8)"                                |                
   ------------------------------------------------------------                
   |      Author: Chris J. Pickard, Cambridge University      |                
   ============================================================                
 
 Atomic calculation performed for Fe: 1s2 2s2 2p6 3s2 3p6 3d6 4s2
 
 Converged in 96 iterations to an ae energy of -34625.101 eV
 
   ============================================================                
   | Pseudopotential Report - Date of generation 27-06-2022   |                
   ------------------------------------------------------------                
   | Element: Fe Ionic charge:  8.00 Level of theory: PBE     |                
   | Atomic Solver: Koelling-Harmon                           |                
   |                                                          |                
   |               Reference Electronic Structure             |                
   |         Orbital         Occupation         Energy        |                
   |            3d              6.000           -0.276        |                
   |            4s              2.000           -0.194        |                
   |                                                          |                
   |                 Pseudopotential Definition               |                
   |        Beta     l      e      Rc     scheme   norm       |                
   |          1      0   -0.194   2.399     qc      0         |                
   |          2      0    0.250   2.399     qc      0         |                
   |          3      1    0.000   2.399     qc      0         |                
   |          4      1    0.250   2.399     qc      0         |                
   |          5      2   -0.276   1.997     qc      0         |                
   |          6      2    0.250   1.997     qc      0         |                
   |         loc     3    0.000   2.399     pn      0         |                
   |                                                          |                
   | Augmentation charge Rinner = 1.000                       |                
   | Partial core correction Rc = 1.000                       |                
   ------------------------------------------------------------                
   | "3|2.4|2.4|1.0|8|9|10|40:41:32U2U2(qc=5.5)"              |                
   ------------------------------------------------------------                
   |      Author: Chris J. Pickard, Cambridge University      |                
   ============================================================                
 
 Pseudo atomic calculation performed for H 1s1
 
 Converged in 16 iterations to a total energy of -12.4388 eV
 
 Pseudo atomic calculation performed for Fe 3d6 4s2
 
 Converged in 39 iterations to a total energy of -853.7730 eV
 Calculation parallelised over 128 processes.
 Data is distributed by G-vector(16-way) and k-point(8-way)

 ************************************ Title ************************************
 

 ***************************** General Parameters ******************************
  
 output verbosity                               : normal  (1)
 write checkpoint data to                       : neb-calc_1-9.check
 type of calculation                            : single point energy
 stress calculation                             : on
 density difference calculation                 : off
 electron localisation func (ELF) calculation   : off
 Hirshfeld analysis                             : off
 polarisation (Berry phase) analysis            : off
 molecular orbital projected DOS                : off
 deltaSCF calculation                           : off
 unlimited duration calculation
 timing information                             : on
 memory usage estimate                          : on
 write extra output files                       : on
 write final potential to formatted file        : off
 write final density to formatted file          : off
 write BibTeX reference list                    : on
 write OTFG pseudopotential files               : on
 write electrostatic potential file             : on
 write bands file                               : on
 checkpoint writing                             : both castep_bin and check files
  
 output         length unit                     : A
 output           mass unit                     : amu
 output           time unit                     : ps
 output         charge unit                     : e
 output           spin unit                     : hbar/2
 output         energy unit                     : eV
 output          force unit                     : eV/A
 output       velocity unit                     : A/ps
 output       pressure unit                     : GPa
 output     inv_length unit                     : 1/A
 output      frequency unit                     : cm-1
 output force constant unit                     : eV/A**2
 output         volume unit                     : A**3
 output   IR intensity unit                     : (D/A)**2/amu
 output         dipole unit                     : D
 output         efield unit                     : eV/A/e
 output        entropy unit                     : J/mol/K
 output    efield chi2 unit                     : pm/V
  
 wavefunctions paging                           : none
 random number generator seed                   : randomised (72239891)
 data distribution                              : optimal for this architecture
 optimization strategy                          : balance speed and memory

 *********************** Exchange-Correlation Parameters ***********************
  
 using functional                               : Perdew Burke Ernzerhof
 relativistic treatment                         : Koelling-Harmon
 DFT+D: Semi-empirical dispersion correction    : off

 ************************* Pseudopotential Parameters **************************
  
 pseudopotential representation                 : reciprocal space
 <beta|phi> representation                      : reciprocal space
 spin-orbit coupling                            : off

 **************************** Basis Set Parameters *****************************
  
 plane wave basis set cut-off                   :   400.0000   eV
 size of standard grid                          :     1.7500
 size of   fine   gmax                          :    17.9311   1/A
 finite basis set correction                    : automatic
 number of sample energies                      :          3
           sample  spacing                      :     5.0000   eV

 **************************** Electronic Parameters ****************************
  
 number of  electrons                           :  398.0    
 net charge of system                           :  0.000    
 net spin   of system                           :  120.0    
 number of  up  spins                           :  259.0    
 number of down spins                           :  139.0    
 treating system as spin-polarized
 number of bands                                :       1036
 electron temperature                           :     0.0000   K

 ********************* Electronic Minimization Parameters **********************
  
 Method: Treating system as metallic with ensemble DFT treatment of electrons,
         and number of  SD  steps               :          1
         and number of  CG  steps               :          4
  
 total energy / atom convergence tol.           : 0.1000E-06   eV
 max force / atom convergence tol.              : ignored
 convergence tolerance window                   :          3   cycles
 max. number of SCF cycles                      :        200
 number of fixed-spin iterations                :         10
 smearing scheme                                : Gaussian
 smearing width                                 : 0.2000       eV
 Fermi energy convergence tolerance             : 0.2721E-13   eV
 number of occupancy cycles                     :          6
 periodic dipole correction                     : NONE

 *********************** Population Analysis Parameters ************************
  
 Population analysis with cutoff                :  3.000       A
 Population analysis output                     : summary and pdos components

 *******************************************************************************
  
 
                           -------------------------------
                                      Unit Cell
                           -------------------------------
        Real Lattice(A)                      Reciprocal Lattice(1/A)
     8.0127110     0.0000000     0.0000000        0.784152244   0.000000000   0.000000000
     0.0000000     8.4987630     0.0000000        0.000000000   0.739305862   0.000000000
     0.0000000     0.0000000    18.0000000        0.000000000   0.000000000   0.349065850
 
                       Lattice parameters(A)       Cell Angles
                    a =      8.012711          alpha =   90.000000
                    b =      8.498763          beta  =   90.000000
                    c =     18.000000          gamma =   90.000000
 
                       Current cell volume =          1225.766372       A**3
                                   density =             2.198356   AMU/A**3
                                           =             3.650456     g/cm^3
 
                           -------------------------------
                                     Cell Contents
                           -------------------------------
                         Total number of ions in cell =   62
                      Total number of species in cell =    2
                        Max number of any one species =   48
 
            xxxxxxxxxxxxxxxxxxxxxxxxxxxxxxxxxxxxxxxxxxxxxxxxxxxxxxxxxxxx
            x  Element    Atom        Fractional coordinates of atoms  x
            x            Number           u          v          w      x
            x----------------------------------------------------------x
            x  H            1         0.338796   0.417139   0.229723   x 
            x  H            2         0.441957   0.613735   0.225212   x 
            x  H            3         0.638272   0.557543   0.320039   x 
            x  H            4         0.152237   0.338663   0.213773   x 
            x  H            5         0.701795   0.407789   0.224583   x 
            x  H            6         0.196993   0.747276   0.226744   x 
            x  H            7         0.964250   0.579732   0.222432   x 
            x  H            8         0.700014   0.751196   0.224913   x 
            x  H            9         0.453679   0.909208   0.229380   x 
            x  H           10         0.208629   0.074019   0.228422   x 
            x  H           11         0.951356   0.910447   0.227026   x 
            x  H           12         0.699201   0.075035   0.229215   x 
            x  H           13         0.467065   0.235946   0.231669   x 
            x  H           14         0.938314   0.243016   0.226498   x 
            x  Fe           1         0.781567   0.579282   0.267540   x 
            x  Fe           2         0.014270   0.574154   0.389236   x 
            x  Fe           3         0.019535   0.743982   0.278142   x 
            x  Fe           4         0.770529   0.909999   0.278878   x 
            x  Fe           5         0.765213   0.740371   0.390159   x 
            x  Fe           6         0.014063   0.910228   0.390046   x 
            x  Fe           7         0.018852   0.076378   0.277953   x 
            x  Fe           8         0.766206   0.242516   0.279255   x 
            x  Fe           9         0.765008   0.076010   0.390883   x 
            x  Fe          10         0.014888   0.241983   0.389742   x 
            x  Fe          11         0.018731   0.409271   0.276147   x 
            x  Fe          12         0.765528   0.408299   0.390618   x 
            x  Fe          13         0.269091   0.580948   0.278541   x 
            x  Fe          14         0.504127   0.577057   0.395417   x 
            x  Fe          15         0.521588   0.747839   0.280042   x 
            x  Fe          16         0.269170   0.909322   0.279401   x 
            x  Fe          17         0.262200   0.743415   0.390890   x 
            x  Fe          18         0.515128   0.908886   0.392066   x 
            x  Fe          19         0.519596   0.072115   0.281578   x 
            x  Fe          20         0.270171   0.243467   0.275849   x 
            x  Fe          21         0.264753   0.075816   0.389896   x 
            x  Fe          22         0.514161   0.242256   0.391179   x 
            x  Fe          23         0.518770   0.413153   0.277671   x 
            x  Fe          24         0.262848   0.408642   0.389947   x 
            x  Fe          25         0.762145   0.574134   0.503763   x 
            x  Fe          26         0.013617   0.572194   0.614438   x 
            x  Fe          27         0.012058   0.740531   0.502760   x 
            x  Fe          28         0.762648   0.907850   0.503378   x 
            x  Fe          29         0.763505   0.738429   0.615185   x 
            x  Fe          30         0.013492   0.905319   0.614434   x 
            x  Fe          31         0.012232   0.074331   0.503014   x 
            x  Fe          32         0.762594   0.240851   0.503479   x 
            x  Fe          33         0.763513   0.072195   0.615040   x 
            x  Fe          34         0.013491   0.239068   0.614436   x 
            x  Fe          35         0.012125   0.407945   0.502778   x 
            x  Fe          36         0.763503   0.405964   0.615186   x 
            x  Fe          37         0.261307   0.574207   0.503377   x 
            x  Fe          38         0.513227   0.572198   0.615235   x 
            x  Fe          39         0.512061   0.741465   0.504780   x 
            x  Fe          40         0.261945   0.908557   0.503368   x 
            x  Fe          41         0.263358   0.738785   0.614243   x 
            x  Fe          42         0.513385   0.905372   0.614899   x 
            x  Fe          43         0.512445   0.074725   0.503941   x 
            x  Fe          44         0.261796   0.240322   0.502914   x 
            x  Fe          45         0.263377   0.072194   0.614465   x 
            x  Fe          46         0.513385   0.239016   0.614898   x 
            x  Fe          47         0.511983   0.407078   0.504185   x 
            x  Fe          48         0.263360   0.405609   0.614244   x 
            xxxxxxxxxxxxxxxxxxxxxxxxxxxxxxxxxxxxxxxxxxxxxxxxxxxxxxxxxxxx
 
 
                         No user defined ionic velocities
 
                           -------------------------------
                                   Details of Species
                           -------------------------------
 
                               Mass of species in AMU
                                    H    1.0079400
                                    Fe   55.8450000
 
                          Electric Quadrupole Moment (Barn)
                                    H    0.0028600 Isotope  2
                                    Fe    0.1600000 Isotope 57
         xxxxxxxxxxxxxxxxxxxxxxxxxxxxxxxxxxxxxxxxxxxxxxxxxxxxxxxxxxxxxxxxxxxxxx
         |  Element    Atom         Initial            Initial magnetic       |
         |            Number    spin polarization        moment (uB)     Fix? |
         |--------------------------------------------------------------------|
         | H              1         0.000000              0.000       F       |
         | H              2         0.000000              0.000       F       |
         | H              3         0.000000              0.000       F       |
         | H              4         0.000000              0.000       F       |
         | H              5         0.000000              0.000       F       |
         | H              6         0.000000              0.000       F       |
         | H              7         0.000000              0.000       F       |
         | H              8         0.000000              0.000       F       |
         | H              9         0.000000              0.000       F       |
         | H             10         0.000000              0.000       F       |
         | H             11         0.000000              0.000       F       |
         | H             12         0.000000              0.000       F       |
         | H             13         0.000000              0.000       F       |
         | H             14         0.000000              0.000       F       |
         | Fe             1         0.312500              2.500       F       |
         | Fe             2         0.312500              2.500       F       |
         | Fe             3         0.312500              2.500       F       |
         | Fe             4         0.312500              2.500       F       |
         | Fe             5         0.312500              2.500       F       |
         | Fe             6         0.312500              2.500       F       |
         | Fe             7         0.312500              2.500       F       |
         | Fe             8         0.312500              2.500       F       |
         | Fe             9         0.312500              2.500       F       |
         | Fe            10         0.312500              2.500       F       |
         | Fe            11         0.312500              2.500       F       |
         | Fe            12         0.312500              2.500       F       |
         | Fe            13         0.312500              2.500       F       |
         | Fe            14         0.312500              2.500       F       |
         | Fe            15         0.312500              2.500       F       |
         | Fe            16         0.312500              2.500       F       |
         | Fe            17         0.312500              2.500       F       |
         | Fe            18         0.312500              2.500       F       |
         | Fe            19         0.312500              2.500       F       |
         | Fe            20         0.312500              2.500       F       |
         | Fe            21         0.312500              2.500       F       |
         | Fe            22         0.312500              2.500       F       |
         | Fe            23         0.312500              2.500       F       |
         | Fe            24         0.312500              2.500       F       |
         | Fe            25         0.312500              2.500       F       |
         | Fe            26         0.312500              2.500       F       |
         | Fe            27         0.312500              2.500       F       |
         | Fe            28         0.312500              2.500       F       |
         | Fe            29         0.312500              2.500       F       |
         | Fe            30         0.312500              2.500       F       |
         | Fe            31         0.312500              2.500       F       |
         | Fe            32         0.312500              2.500       F       |
         | Fe            33         0.312500              2.500       F       |
         | Fe            34         0.312500              2.500       F       |
         | Fe            35         0.312500              2.500       F       |
         | Fe            36         0.312500              2.500       F       |
         | Fe            37         0.312500              2.500       F       |
         | Fe            38         0.312500              2.500       F       |
         | Fe            39         0.312500              2.500       F       |
         | Fe            40         0.312500              2.500       F       |
         | Fe            41         0.312500              2.500       F       |
         | Fe            42         0.312500              2.500       F       |
         | Fe            43         0.312500              2.500       F       |
         | Fe            44         0.312500              2.500       F       |
         | Fe            45         0.312500              2.500       F       |
         | Fe            46         0.312500              2.500       F       |
         | Fe            47         0.312500              2.500       F       |
         | Fe            48         0.312500              2.500       F       |
         xxxxxxxxxxxxxxxxxxxxxxxxxxxxxxxxxxxxxxxxxxxxxxxxxxxxxxxxxxxxxxxxxxxxxx
 
 
                          Files used for pseudopotentials:
                                    H 1|0.6|13|15|17|10(qc=8)
                                    Fe 3|2.4|2.4|1.0|8|9|10|40:41:32U2U2(qc=5.5)
 
                           -------------------------------
                              k-Points For BZ Sampling
                           -------------------------------
                       MP grid size for SCF calculation is  4  4  1
                            with an offset of   0.000  0.000  0.000
                       Number of kpoints used =   8
 
                           -------------------------------
                               Symmetry and Constraints
                           -------------------------------
 
                      Maximum deviation from symmetry =  0.00000         ANG
 
                      Number of symmetry operations   = 1
                      Number of ionic constraints     = 3
                      Point group of crystal =     1: C1, 1, 1
                      Space group of crystal =     1: P1, P 1
 
             Set iprint > 1 for details on symmetry rotations/translations
 
                         Centre of mass is constrained
             Set iprint > 1 for details of linear ionic constraints
 
                         Number of cell constraints= 0
                         Cell constraints are:  1 2 3 4 5 6
 
                         External pressure/stress (GPa)
                          0.00000   0.00000   0.00000
                                    0.00000   0.00000
                                              0.00000
  
+---------------- MEMORY AND SCRATCH DISK ESTIMATES PER PROCESS --------------+
|                                                     Memory          Disk    |
| Baseline code, static data and system overhead      771.0 MB         0.0 MB |
| BLAS internal memory storage                          0.0 MB         0.0 MB |
| Model and support data                              262.5 MB        43.6 MB |
| Electronic energy minimisation requirements         456.9 MB         0.0 MB |
| Force calculation requirements                        3.7 MB         0.0 MB |
| Stress calculation requirements                       3.7 MB         0.0 MB |
|                                               ----------------------------- |
| Approx. total storage required per process         1490.3 MB        43.6 MB |
|                                                                             |
| Requirements will fluctuate during execution and may exceed these estimates |
+-----------------------------------------------------------------------------+
Calculating finite basis set correction with  3 cut-off energies.
Calculating total energy with cut-off of  390.000 eV.
Calculating approximate eigenstates for fixed initial Hamiltonian
Cut-off for approx. calculation is  159.419 eV
Improving approx. states at cut-off of  217.691 eV
Resetting cut-off to  389.869 eV
Improving states further at cut-off of  389.869 eV
------------------------------------------------------------------------ <-- SCF
SCF loop      Energy           Fermi           Energy gain       Timer   <-- SCF
                               energy          per atom          (sec)   <-- SCF
------------------------------------------------------------------------ <-- SCF
Initial   3.29474674E+004 -6.21886421E+001                       238.26  <-- SCF
      1  -4.13787319E+004 -4.60880515E+000   1.19880967E+003    1247.19  <-- SCF
      2  -4.15930469E+004 -1.26552189E+000   3.45669414E+000    2189.03  <-- SCF
      3  -4.16233106E+004 -1.24105735E-001   4.88123488E-001    3202.50  <-- SCF
      4  -4.16269792E+004  1.87523144E-001   5.91711957E-002    4215.95  <-- SCF
      5  -4.16272483E+004  2.24452622E-001   4.34156042E-003    5084.54  <-- SCF
      6  -4.16272561E+004  2.22112096E-001   1.24655389E-004    6175.20  <-- SCF
      7  -4.16272566E+004  2.21399779E-001   8.51242421E-006    7368.95  <-- SCF
      8  -4.16272568E+004  2.20864041E-001   3.66539110E-006    8406.38  <-- SCF
      9  -4.16272569E+004  2.20498671E-001   1.32038852E-006    9598.12  <-- SCF
     10  -4.16275166E+004  1.54300537E-001   4.18804783E-003   10675.11  <-- SCF
     11  -4.16275569E+004  1.41148985E-001   6.50015817E-004   11553.06  <-- SCF
     12  -4.16275621E+004  1.37265609E-001   8.47772677E-005   12579.67  <-- SCF
     13  -4.16275630E+004  1.35307483E-001   1.41995050E-005   13621.98  <-- SCF
     14  -4.16275630E+004  1.35084715E-001   2.80764614E-007   14451.84  <-- SCF
     15  -4.16275630E+004  1.35062192E-001   2.98280643E-009   15102.15  <-- SCF
     16  -4.16275630E+004  1.35062192E-001   0.00000000E+000   15665.49  <-- SCF
------------------------------------------------------------------------ <-- SCF
 
Integrated Spin Density     =     113.482     hbar/2                        
Integrated |Spin Density|   =     118.705     hbar/2                        
 
Final energy, E             =  -41626.57187341     eV
Final free energy (E-TS)    =  -41627.56302340     eV
(energies not corrected for finite basis set)
 
NB est. 0K energy (E-0.5TS)      =  -41627.06744840     eV
 
Calculating total energy with cut-off of  395.000 eV.
------------------------------------------------------------------------ <-- SCF
SCF loop      Energy           Fermi           Energy gain       Timer   <-- SCF
                               energy          per atom          (sec)   <-- SCF
------------------------------------------------------------------------ <-- SCF
Initial  -4.16271792E+004  1.36328434E-001                     15706.59  <-- SCF
      1  -4.16276488E+004  1.35099527E-001   7.57419634E-003   16149.81  <-- SCF
      2  -4.16276489E+004  1.34971639E-001   2.39833784E-006   16738.49  <-- SCF
      3  -4.16276489E+004  1.34971639E-001   7.98342304E-013   17322.31  <-- SCF
      4  -4.16276489E+004  1.34971639E-001   0.00000000E+000   17908.72  <-- SCF
------------------------------------------------------------------------ <-- SCF
 
Integrated Spin Density     =     113.453     hbar/2                        
Integrated |Spin Density|   =     118.673     hbar/2                        
 
Final energy, E             =  -41626.65689686     eV
Final free energy (E-TS)    =  -41627.64893543     eV
(energies not corrected for finite basis set)
 
NB est. 0K energy (E-0.5TS)      =  -41627.15291615     eV
 
Calculating total energy with cut-off of  400.000 eV.
------------------------------------------------------------------------ <-- SCF
SCF loop      Energy           Fermi           Energy gain       Timer   <-- SCF
                               energy          per atom          (sec)   <-- SCF
------------------------------------------------------------------------ <-- SCF
Initial  -4.16271103E+004  1.32942769E-001                     17951.26  <-- SCF
      1  -4.16277190E+004  1.35056673E-001   9.81778725E-003   18383.43  <-- SCF
      2  -4.16277194E+004  1.34789988E-001   6.40915648E-006   19007.74  <-- SCF
      3  -4.16277194E+004  1.34789983E-001   2.21539989E-011   19643.67  <-- SCF
      4  -4.16277194E+004  1.34789976E-001   9.97927880E-013   20274.98  <-- SCF
------------------------------------------------------------------------ <-- SCF
 
Integrated Spin Density     =     113.443     hbar/2                        
Integrated |Spin Density|   =     118.665     hbar/2                        
 
Final energy, E             =  -41626.72700590     eV
Final free energy (E-TS)    =  -41627.71935049     eV
(energies not corrected for finite basis set)
 
NB est. 0K energy (E-0.5TS)      =  -41627.22317820     eV
 
 For future reference: finite basis dEtot/dlog(Ecut) =      -6.050894eV
 Total energy corrected for finite basis set =  -41627.718180 eV
 
 ************************** Forces **************************
 *                                                          *
 *               Cartesian components (eV/A)                *
 * -------------------------------------------------------- *
 *                         x            y            z      *
 *                                                          *
 * H               1     -0.04370     -0.08153      0.03107 *
 * H               2      0.03924     -0.31520     -0.10746 *
 * H               3     -1.28340      0.00413      1.26715 *
 * H               4     -0.03138     -0.00414     -0.07044 *
 * H               5      0.00789      0.03557     -0.02131 *
 * H               6      0.03248     -0.02000      0.04040 *
 * H               7      0.16911     -0.03036     -0.15951 *
 * H               8     -0.04594     -0.08762     -0.01231 *
 * H               9     -0.01821     -0.02987     -0.01828 *
 * H              10     -0.02657      0.01075      0.00410 *
 * H              11      0.02427     -0.02619      0.02877 *
 * H              12      0.00441     -0.01229      0.00218 *
 * H              13      0.01626     -0.01827     -0.01203 *
 * H              14      0.01653     -0.02339      0.05718 *
 * Fe              1      0.72738      0.15694     -0.54329 *
 * Fe              2     -0.03068      0.13409     -0.00995 *
 * Fe              3      0.09529      0.06332      0.02410 *
 * Fe              4      0.02126     -0.06174      0.00385 *
 * Fe              5      0.00909      0.01173     -0.04934 *
 * Fe              6      0.00396     -0.10604     -0.00386 *
 * Fe              7     -0.00943      0.09255      0.02603 *
 * Fe              8     -0.00723     -0.08323     -0.04807 *
 * Fe              9     -0.01495      0.06855      0.01358 *
 * Fe             10     -0.01644     -0.01304     -0.01468 *
 * Fe             11     -0.01265     -0.16688      0.03313 *
 * Fe             12     -0.09946      0.13338     -0.19025 *
 * Fe             13      0.02390      0.12934     -0.02282 *
 * Fe             14      0.38919      0.00923     -0.12994 *
 * Fe             15      0.13659      0.03387      0.17019 *
 * Fe             16      0.00362      0.04770      0.01493 *
 * Fe             17     -0.00611     -0.01305     -0.01834 *
 * Fe             18      0.00076     -0.06792      0.02356 *
 * Fe             19      0.01138      0.12456      0.03176 *
 * Fe             20     -0.01597     -0.06561     -0.02613 *
 * Fe             21     -0.00203      0.07900      0.00107 *
 * Fe             22     -0.00246     -0.03618     -0.01687 *
 * Fe             23     -0.00306     -0.01116     -0.13085 *
 * Fe             24     -0.02707     -0.11719     -0.02293 *
 * Fe             25      0.01809      0.04951     -0.03311 *
 * Fe             26     -0.02057      0.05909     -0.04131 *
 * Fe             27      0.01602      0.01445      0.00617 *
 * Fe             28      0.01065     -0.10453      0.01085 *
 * Fe             29     -0.00106      0.07332     -0.06613 *
 * Fe             30     -0.02321     -0.02976     -0.04472 *
 * Fe             31      0.01352      0.07295      0.01359 *
 * Fe             32      0.00678      0.00883      0.01646 *
 * Fe             33     -0.00176      0.06920     -0.07164 *
 * Fe             34     -0.01663      0.04286     -0.03439 *
 * Fe             35      0.01185     -0.08644     -0.00746 *
 * Fe             36      0.00260     -0.05572     -0.06342 *
 * Fe             37      0.01231      0.06802      0.01920 *
 * Fe             38     -0.02308      0.04283      0.03513 *
 * Fe             39      0.00721      0.01679      0.02628 *
 * Fe             40      0.01381     -0.08003      0.00447 *
 * Fe             41     -0.03976      0.05375      0.02859 *
 * Fe             42      0.00062      0.01156      0.02151 *
 * Fe             43      0.01587      0.04207      0.03430 *
 * Fe             44      0.02456      0.02115      0.00846 *
 * Fe             45     -0.02491      0.07995     -0.01847 *
 * Fe             46     -0.00967      0.02456      0.00955 *
 * Fe             47      0.00906     -0.08546      0.00755 *
 * Fe             48     -0.03817     -0.05274     -0.00584 *
 *                                                          *
 ************************************************************
 
 ***************** Stress Tensor *****************
 *                                               *
 *          Cartesian components (GPa)           *
 * --------------------------------------------- *
 *             x             y             z     *
 *                                               *
 *  x     -2.060594     -0.132492      0.100957  *
 *  y     -0.132492      1.051608     -0.308189  *
 *  z      0.100957     -0.308189     -0.548979  *
 *                                               *
 *  Pressure:    0.5193                          *
 *                                               *
 *************************************************
 
 Pseudo atomic calculation performed for H 1s1
 
 Converged in 16 iterations to a total energy of -12.4388 eV
 
 Pseudo atomic calculation performed for Fe 3d6 4s2
 
 Converged in 39 iterations to a total energy of -853.7730 eV
Charge spilling parameter for spin component 1 = 0.16%
Charge spilling parameter for spin component 2 = 0.53%
 
                   Orbital Populations                  
  ---------------------------------------------------------------
     Ion    Atom   Orbital              Up        Down      Spin
  ---------------------------------------------------------------
      H     1      S                    0.582     0.644    -0.062
      H     2      S                    0.581     0.654    -0.072
      H     3      S                    0.632     0.689    -0.057
      H     4      S                    0.560     0.647    -0.086
      H     5      S                    0.604     0.669    -0.066
      H     6      S                    0.600     0.669    -0.069
      H     7      S                    0.619     0.672    -0.053
      H     8      S                    0.604     0.672    -0.068
      H     9      S                    0.602     0.666    -0.064
      H    10      S                    0.603     0.668    -0.065
      H    11      S                    0.602     0.671    -0.068
      H    12      S                    0.602     0.671    -0.069
      H    13      S                    0.595     0.660    -0.065
      H    14      S                    0.591     0.667    -0.076
     Fe     1      Dzz                  0.954     0.467     0.487
     Fe     1      Dzy                  0.899     0.465     0.434
     Fe     1      Dzx                  0.877     0.367     0.510
     Fe     1      Dxx-yy               0.899     0.363     0.536
     Fe     1      Dxy                  0.861     0.603     0.258
     Fe     1      S                    0.289     0.250     0.038
     Fe     1      Px                   0.013     0.018    -0.005
     Fe     1      Py                   0.086     0.101    -0.015
     Fe     1      Pz                   0.032     0.015     0.017
     Fe     2      Dzz                  0.901     0.452     0.449
     Fe     2      Dzy                  0.903     0.482     0.421
     Fe     2      Dzx                  0.951     0.290     0.661
     Fe     2      Dxx-yy               0.936     0.346     0.590
     Fe     2      Dxy                  0.879     0.511     0.368
     Fe     2      S                    0.334     0.354    -0.020
     Fe     2      Px                   0.068     0.110    -0.042
     Fe     2      Py                   0.077     0.124    -0.047
     Fe     2      Pz                   0.091     0.159    -0.068
     Fe     3      Dzz                  0.951     0.446     0.506
     Fe     3      Dzy                  0.870     0.470     0.399
     Fe     3      Dzx                  0.908     0.343     0.566
     Fe     3      Dxx-yy               0.912     0.345     0.567
     Fe     3      Dxy                  0.875     0.576     0.299
     Fe     3      S                    0.337     0.310     0.027
     Fe     3      Px                   0.066     0.096    -0.030
     Fe     3      Py                   0.093     0.108    -0.015
     Fe     3      Pz                   0.052     0.044     0.008
     Fe     4      Dzz                  0.952     0.444     0.509
     Fe     4      Dzy                  0.879     0.463     0.416
     Fe     4      Dzx                  0.916     0.325     0.591
     Fe     4      Dxx-yy               0.914     0.349     0.565
     Fe     4      Dxy                  0.874     0.571     0.303
     Fe     4      S                    0.331     0.306     0.025
     Fe     4      Px                   0.060     0.087    -0.026
     Fe     4      Py                   0.088     0.109    -0.020
     Fe     4      Pz                   0.049     0.040     0.008
     Fe     5      Dzz                  0.911     0.444     0.467
     Fe     5      Dzy                  0.914     0.459     0.455
     Fe     5      Dzx                  0.952     0.291     0.661
     Fe     5      Dxx-yy               0.938     0.340     0.598
     Fe     5      Dxy                  0.887     0.504     0.382
     Fe     5      S                    0.333     0.354    -0.020
     Fe     5      Px                   0.073     0.110    -0.037
     Fe     5      Py                   0.077     0.126    -0.049
     Fe     5      Pz                   0.099     0.167    -0.068
     Fe     6      Dzz                  0.897     0.450     0.447
     Fe     6      Dzy                  0.905     0.488     0.417
     Fe     6      Dzx                  0.950     0.297     0.653
     Fe     6      Dxx-yy               0.934     0.347     0.587
     Fe     6      Dxy                  0.876     0.507     0.369
     Fe     6      S                    0.338     0.362    -0.024
     Fe     6      Px                   0.069     0.109    -0.040
     Fe     6      Py                   0.072     0.124    -0.052
     Fe     6      Pz                   0.088     0.158    -0.069
     Fe     7      Dzz                  0.955     0.419     0.536
     Fe     7      Dzy                  0.890     0.475     0.415
     Fe     7      Dzx                  0.927     0.317     0.610
     Fe     7      Dxx-yy               0.923     0.339     0.584
     Fe     7      Dxy                  0.873     0.551     0.322
     Fe     7      S                    0.331     0.300     0.031
     Fe     7      Px                   0.069     0.094    -0.025
     Fe     7      Py                   0.083     0.093    -0.009
     Fe     7      Pz                   0.052     0.037     0.015
     Fe     8      Dzz                  0.953     0.440     0.513
     Fe     8      Dzy                  0.877     0.473     0.404
     Fe     8      Dzx                  0.909     0.333     0.576
     Fe     8      Dxx-yy               0.919     0.337     0.582
     Fe     8      Dxy                  0.883     0.563     0.319
     Fe     8      S                    0.329     0.304     0.025
     Fe     8      Px                   0.071     0.101    -0.030
     Fe     8      Py                   0.095     0.111    -0.015
     Fe     8      Pz                   0.048     0.036     0.012
     Fe     9      Dzz                  0.897     0.445     0.452
     Fe     9      Dzy                  0.900     0.499     0.401
     Fe     9      Dzx                  0.950     0.297     0.653
     Fe     9      Dxx-yy               0.934     0.345     0.589
     Fe     9      Dxy                  0.878     0.507     0.371
     Fe     9      S                    0.337     0.360    -0.023
     Fe     9      Px                   0.068     0.108    -0.040
     Fe     9      Py                   0.069     0.117    -0.047
     Fe     9      Pz                   0.089     0.156    -0.067
     Fe    10      Dzz                  0.900     0.452     0.449
     Fe    10      Dzy                  0.906     0.483     0.423
     Fe    10      Dzx                  0.953     0.290     0.663
     Fe    10      Dxx-yy               0.934     0.345     0.588
     Fe    10      Dxy                  0.876     0.509     0.367
     Fe    10      S                    0.337     0.360    -0.023
     Fe    10      Px                   0.068     0.104    -0.037
     Fe    10      Py                   0.076     0.125    -0.050
     Fe    10      Pz                   0.087     0.157    -0.070
     Fe    11      Dzz                  0.937     0.489     0.448
     Fe    11      Dzy                  0.877     0.444     0.433
     Fe    11      Dzx                  0.914     0.327     0.587
     Fe    11      Dxx-yy               0.935     0.355     0.580
     Fe    11      Dxy                  0.862     0.550     0.313
     Fe    11      S                    0.332     0.305     0.027
     Fe    11      Px                   0.079     0.116    -0.036
     Fe    11      Py                   0.100     0.115    -0.014
     Fe    11      Pz                   0.046     0.035     0.010
     Fe    12      Dzz                  0.909     0.456     0.453
     Fe    12      Dzy                  0.912     0.457     0.454
     Fe    12      Dzx                  0.951     0.288     0.663
     Fe    12      Dxx-yy               0.936     0.352     0.584
     Fe    12      Dxy                  0.889     0.498     0.390
     Fe    12      S                    0.330     0.352    -0.022
     Fe    12      Px                   0.072     0.107    -0.035
     Fe    12      Py                   0.079     0.128    -0.049
     Fe    12      Pz                   0.093     0.158    -0.065
     Fe    13      Dzz                  0.951     0.449     0.503
     Fe    13      Dzy                  0.882     0.493     0.389
     Fe    13      Dzx                  0.925     0.311     0.614
     Fe    13      Dxx-yy               0.923     0.352     0.571
     Fe    13      Dxy                  0.867     0.535     0.332
     Fe    13      S                    0.324     0.296     0.028
     Fe    13      Px                   0.069     0.099    -0.030
     Fe    13      Py                   0.078     0.088    -0.010
     Fe    13      Pz                   0.048     0.030     0.017
     Fe    14      Dzz                  0.897     0.462     0.435
     Fe    14      Dzy                  0.900     0.501     0.399
     Fe    14      Dzx                  0.932     0.297     0.635
     Fe    14      Dxx-yy               0.932     0.361     0.571
     Fe    14      Dxy                  0.881     0.518     0.363
     Fe    14      S                    0.329     0.352    -0.023
     Fe    14      Px                   0.054     0.081    -0.028
     Fe    14      Py                   0.084     0.135    -0.051
     Fe    14      Pz                   0.055     0.101    -0.047
     Fe    15      Dzz                  0.943     0.479     0.465
     Fe    15      Dzy                  0.851     0.503     0.348
     Fe    15      Dzx                  0.902     0.344     0.557
     Fe    15      Dxx-yy               0.916     0.369     0.547
     Fe    15      Dxy                  0.860     0.555     0.304
     Fe    15      S                    0.320     0.302     0.018
     Fe    15      Px                   0.072     0.101    -0.029
     Fe    15      Py                   0.091     0.109    -0.018
     Fe    15      Pz                   0.034     0.022     0.013
     Fe    16      Dzz                  0.950     0.443     0.507
     Fe    16      Dzy                  0.872     0.486     0.386
     Fe    16      Dzx                  0.920     0.323     0.596
     Fe    16      Dxx-yy               0.913     0.343     0.570
     Fe    16      Dxy                  0.874     0.566     0.308
     Fe    16      S                    0.328     0.301     0.027
     Fe    16      Px                   0.064     0.091    -0.028
     Fe    16      Py                   0.085     0.097    -0.012
     Fe    16      Pz                   0.047     0.035     0.012
     Fe    17      Dzz                  0.897     0.449     0.448
     Fe    17      Dzy                  0.902     0.492     0.411
     Fe    17      Dzx                  0.950     0.296     0.653
     Fe    17      Dxx-yy               0.934     0.346     0.588
     Fe    17      Dxy                  0.874     0.511     0.363
     Fe    17      S                    0.338     0.361    -0.023
     Fe    17      Px                   0.065     0.103    -0.037
     Fe    17      Py                   0.070     0.121    -0.050
     Fe    17      Pz                   0.090     0.157    -0.068
     Fe    18      Dzz                  0.900     0.445     0.455
     Fe    18      Dzy                  0.905     0.486     0.419
     Fe    18      Dzx                  0.951     0.297     0.654
     Fe    18      Dxx-yy               0.936     0.346     0.590
     Fe    18      Dxy                  0.885     0.495     0.391
     Fe    18      S                    0.341     0.360    -0.020
     Fe    18      Px                   0.074     0.115    -0.040
     Fe    18      Py                   0.073     0.126    -0.053
     Fe    18      Pz                   0.081     0.148    -0.067
     Fe    19      Dzz                  0.951     0.428     0.523
     Fe    19      Dzy                  0.861     0.520     0.341
     Fe    19      Dzx                  0.911     0.341     0.569
     Fe    19      Dxx-yy               0.910     0.339     0.570
     Fe    19      Dxy                  0.876     0.569     0.307
     Fe    19      S                    0.329     0.305     0.025
     Fe    19      Px                   0.070     0.099    -0.029
     Fe    19      Py                   0.081     0.093    -0.012
     Fe    19      Pz                   0.048     0.036     0.012
     Fe    20      Dzz                  0.937     0.520     0.417
     Fe    20      Dzy                  0.865     0.488     0.377
     Fe    20      Dzx                  0.908     0.321     0.587
     Fe    20      Dxx-yy               0.908     0.358     0.550
     Fe    20      Dxy                  0.853     0.566     0.288
     Fe    20      S                    0.313     0.289     0.024
     Fe    20      Px                   0.063     0.086    -0.023
     Fe    20      Py                   0.088     0.099    -0.011
     Fe    20      Pz                   0.047     0.035     0.012
     Fe    21      Dzz                  0.897     0.448     0.450
     Fe    21      Dzy                  0.903     0.482     0.421
     Fe    21      Dzx                  0.949     0.301     0.648
     Fe    21      Dxx-yy               0.934     0.343     0.591
     Fe    21      Dxy                  0.878     0.514     0.363
     Fe    21      S                    0.338     0.360    -0.022
     Fe    21      Px                   0.068     0.109    -0.041
     Fe    21      Py                   0.074     0.122    -0.048
     Fe    21      Pz                   0.091     0.160    -0.069
     Fe    22      Dzz                  0.908     0.438     0.471
     Fe    22      Dzy                  0.904     0.485     0.420
     Fe    22      Dzx                  0.951     0.293     0.657
     Fe    22      Dxx-yy               0.937     0.343     0.593
     Fe    22      Dxy                  0.881     0.501     0.380
     Fe    22      S                    0.334     0.355    -0.021
     Fe    22      Px                   0.070     0.110    -0.040
     Fe    22      Py                   0.079     0.133    -0.054
     Fe    22      Pz                   0.092     0.161    -0.069
     Fe    23      Dzz                  0.950     0.500     0.449
     Fe    23      Dzy                  0.897     0.481     0.417
     Fe    23      Dzx                  0.889     0.348     0.541
     Fe    23      Dxx-yy               0.897     0.325     0.572
     Fe    23      Dxy                  0.875     0.574     0.301
     Fe    23      S                    0.298     0.278     0.020
     Fe    23      Px                   0.057     0.068    -0.012
     Fe    23      Py                   0.085     0.090    -0.005
     Fe    23      Pz                   0.047     0.038     0.009
     Fe    24      Dzz                  0.901     0.453     0.449
     Fe    24      Dzy                  0.909     0.470     0.440
     Fe    24      Dzx                  0.951     0.294     0.657
     Fe    24      Dxx-yy               0.935     0.346     0.589
     Fe    24      Dxy                  0.877     0.510     0.367
     Fe    24      S                    0.335     0.356    -0.021
     Fe    24      Px                   0.062     0.100    -0.038
     Fe    24      Py                   0.075     0.124    -0.049
     Fe    24      Pz                   0.090     0.159    -0.069
     Fe    25      Dzz                  0.903     0.453     0.450
     Fe    25      Dzy                  0.911     0.488     0.423
     Fe    25      Dzx                  0.951     0.298     0.653
     Fe    25      Dxx-yy               0.933     0.352     0.580
     Fe    25      Dxy                  0.872     0.498     0.375
     Fe    25      S                    0.330     0.358    -0.028
     Fe    25      Px                   0.071     0.112    -0.041
     Fe    25      Py                   0.077     0.136    -0.060
     Fe    25      Pz                   0.078     0.145    -0.067
     Fe    26      Dzz                  0.951     0.349     0.602
     Fe    26      Dzy                  0.943     0.434     0.509
     Fe    26      Dzx                  0.959     0.311     0.648
     Fe    26      Dxx-yy               0.927     0.370     0.557
     Fe    26      Dxy                  0.883     0.529     0.354
     Fe    26      S                    0.407     0.387     0.020
     Fe    26      Px                   0.078     0.089    -0.010
     Fe    26      Py                   0.118     0.177    -0.059
     Fe    26      Pz                   0.059     0.065    -0.006
     Fe    27      Dzz                  0.903     0.455     0.448
     Fe    27      Dzy                  0.910     0.485     0.425
     Fe    27      Dzx                  0.949     0.298     0.651
     Fe    27      Dxx-yy               0.933     0.352     0.581
     Fe    27      Dxy                  0.872     0.505     0.367
     Fe    27      S                    0.331     0.359    -0.028
     Fe    27      Px                   0.068     0.109    -0.040
     Fe    27      Py                   0.077     0.137    -0.059
     Fe    27      Pz                   0.080     0.143    -0.063
     Fe    28      Dzz                  0.902     0.455     0.446
     Fe    28      Dzy                  0.912     0.486     0.425
     Fe    28      Dzx                  0.950     0.297     0.652
     Fe    28      Dxx-yy               0.932     0.355     0.577
     Fe    28      Dxy                  0.874     0.497     0.377
     Fe    28      S                    0.331     0.360    -0.029
     Fe    28      Px                   0.069     0.109    -0.040
     Fe    28      Py                   0.077     0.138    -0.061
     Fe    28      Pz                   0.081     0.145    -0.064
     Fe    29      Dzz                  0.952     0.347     0.605
     Fe    29      Dzy                  0.944     0.438     0.505
     Fe    29      Dzx                  0.959     0.307     0.653
     Fe    29      Dxx-yy               0.928     0.366     0.562
     Fe    29      Dxy                  0.881     0.532     0.349
     Fe    29      S                    0.407     0.386     0.021
     Fe    29      Px                   0.079     0.087    -0.008
     Fe    29      Py                   0.119     0.178    -0.059
     Fe    29      Pz                   0.059     0.064    -0.005
     Fe    30      Dzz                  0.952     0.348     0.604
     Fe    30      Dzy                  0.944     0.433     0.511
     Fe    30      Dzx                  0.959     0.312     0.647
     Fe    30      Dxx-yy               0.927     0.368     0.560
     Fe    30      Dxy                  0.883     0.529     0.354
     Fe    30      S                    0.406     0.386     0.021
     Fe    30      Px                   0.080     0.089    -0.009
     Fe    30      Py                   0.118     0.178    -0.059
     Fe    30      Pz                   0.060     0.065    -0.005
     Fe    31      Dzz                  0.900     0.458     0.442
     Fe    31      Dzy                  0.906     0.491     0.416
     Fe    31      Dzx                  0.949     0.299     0.650
     Fe    31      Dxx-yy               0.931     0.355     0.576
     Fe    31      Dxy                  0.870     0.505     0.365
     Fe    31      S                    0.332     0.361    -0.029
     Fe    31      Px                   0.068     0.108    -0.040
     Fe    31      Py                   0.075     0.136    -0.061
     Fe    31      Pz                   0.077     0.141    -0.064
     Fe    32      Dzz                  0.901     0.457     0.444
     Fe    32      Dzy                  0.907     0.494     0.413
     Fe    32      Dzx                  0.950     0.295     0.655
     Fe    32      Dxx-yy               0.932     0.354     0.578
     Fe    32      Dxy                  0.871     0.502     0.369
     Fe    32      S                    0.330     0.359    -0.028
     Fe    32      Px                   0.069     0.108    -0.040
     Fe    32      Py                   0.076     0.136    -0.060
     Fe    32      Pz                   0.079     0.142    -0.063
     Fe    33      Dzz                  0.951     0.350     0.601
     Fe    33      Dzy                  0.945     0.433     0.512
     Fe    33      Dzx                  0.959     0.310     0.649
     Fe    33      Dxx-yy               0.927     0.369     0.559
     Fe    33      Dxy                  0.884     0.526     0.357
     Fe    33      S                    0.405     0.385     0.020
     Fe    33      Px                   0.080     0.088    -0.009
     Fe    33      Py                   0.120     0.177    -0.058
     Fe    33      Pz                   0.059     0.064    -0.005
     Fe    34      Dzz                  0.952     0.346     0.605
     Fe    34      Dzy                  0.943     0.437     0.506
     Fe    34      Dzx                  0.959     0.310     0.648
     Fe    34      Dxx-yy               0.928     0.366     0.562
     Fe    34      Dxy                  0.881     0.532     0.349
     Fe    34      S                    0.407     0.386     0.021
     Fe    34      Px                   0.079     0.088    -0.009
     Fe    34      Py                   0.118     0.177    -0.059
     Fe    34      Pz                   0.059     0.065    -0.005
     Fe    35      Dzz                  0.900     0.460     0.440
     Fe    35      Dzy                  0.910     0.482     0.428
     Fe    35      Dzx                  0.949     0.297     0.652
     Fe    35      Dxx-yy               0.931     0.355     0.577
     Fe    35      Dxy                  0.874     0.502     0.372
     Fe    35      S                    0.331     0.360    -0.028
     Fe    35      Px                   0.069     0.109    -0.040
     Fe    35      Py                   0.076     0.136    -0.060
     Fe    35      Pz                   0.078     0.141    -0.063
     Fe    36      Dzz                  0.951     0.350     0.601
     Fe    36      Dzy                  0.944     0.434     0.510
     Fe    36      Dzx                  0.959     0.307     0.652
     Fe    36      Dxx-yy               0.928     0.369     0.559
     Fe    36      Dxy                  0.883     0.529     0.354
     Fe    36      S                    0.407     0.386     0.021
     Fe    36      Px                   0.079     0.088    -0.009
     Fe    36      Py                   0.119     0.178    -0.059
     Fe    36      Pz                   0.059     0.064    -0.005
     Fe    37      Dzz                  0.902     0.455     0.447
     Fe    37      Dzy                  0.908     0.488     0.420
     Fe    37      Dzx                  0.947     0.302     0.646
     Fe    37      Dxx-yy               0.932     0.354     0.578
     Fe    37      Dxy                  0.875     0.498     0.377
     Fe    37      S                    0.333     0.361    -0.028
     Fe    37      Px                   0.068     0.107    -0.039
     Fe    37      Py                   0.075     0.135    -0.060
     Fe    37      Pz                   0.075     0.139    -0.064
     Fe    38      Dzz                  0.950     0.352     0.598
     Fe    38      Dzy                  0.943     0.433     0.509
     Fe    38      Dzx                  0.959     0.309     0.650
     Fe    38      Dxx-yy               0.926     0.371     0.555
     Fe    38      Dxy                  0.884     0.528     0.355
     Fe    38      S                    0.407     0.385     0.022
     Fe    38      Px                   0.078     0.086    -0.008
     Fe    38      Py                   0.119     0.178    -0.059
     Fe    38      Pz                   0.057     0.062    -0.005
     Fe    39      Dzz                  0.899     0.461     0.438
     Fe    39      Dzy                  0.899     0.504     0.395
     Fe    39      Dzx                  0.949     0.297     0.652
     Fe    39      Dxx-yy               0.932     0.355     0.578
     Fe    39      Dxy                  0.872     0.501     0.371
     Fe    39      S                    0.334     0.362    -0.027
     Fe    39      Px                   0.072     0.113    -0.041
     Fe    39      Py                   0.076     0.135    -0.059
     Fe    39      Pz                   0.068     0.129    -0.061
     Fe    40      Dzz                  0.900     0.458     0.442
     Fe    40      Dzy                  0.908     0.489     0.419
     Fe    40      Dzx                  0.949     0.299     0.651
     Fe    40      Dxx-yy               0.932     0.355     0.576
     Fe    40      Dxy                  0.873     0.498     0.375
     Fe    40      S                    0.332     0.360    -0.028
     Fe    40      Px                   0.069     0.110    -0.041
     Fe    40      Py                   0.075     0.135    -0.060
     Fe    40      Pz                   0.077     0.141    -0.064
     Fe    41      Dzz                  0.951     0.348     0.603
     Fe    41      Dzy                  0.942     0.440     0.503
     Fe    41      Dzx                  0.958     0.311     0.647
     Fe    41      Dxx-yy               0.927     0.367     0.561
     Fe    41      Dxy                  0.880     0.531     0.349
     Fe    41      S                    0.406     0.387     0.020
     Fe    41      Px                   0.078     0.088    -0.010
     Fe    41      Py                   0.118     0.177    -0.059
     Fe    41      Pz                   0.059     0.064    -0.005
     Fe    42      Dzz                  0.949     0.351     0.598
     Fe    42      Dzy                  0.942     0.440     0.502
     Fe    42      Dzx                  0.959     0.309     0.649
     Fe    42      Dxx-yy               0.926     0.369     0.557
     Fe    42      Dxy                  0.882     0.529     0.352
     Fe    42      S                    0.407     0.387     0.020
     Fe    42      Px                   0.079     0.088    -0.009
     Fe    42      Py                   0.119     0.179    -0.060
     Fe    42      Pz                   0.057     0.062    -0.006
     Fe    43      Dzz                  0.899     0.456     0.444
     Fe    43      Dzy                  0.907     0.494     0.413
     Fe    43      Dzx                  0.949     0.299     0.651
     Fe    43      Dxx-yy               0.931     0.355     0.577
     Fe    43      Dxy                  0.873     0.500     0.373
     Fe    43      S                    0.333     0.362    -0.029
     Fe    43      Px                   0.069     0.110    -0.041
     Fe    43      Py                   0.077     0.138    -0.061
     Fe    43      Pz                   0.076     0.138    -0.063
     Fe    44      Dzz                  0.901     0.456     0.445
     Fe    44      Dzy                  0.906     0.490     0.416
     Fe    44      Dzx                  0.950     0.298     0.652
     Fe    44      Dxx-yy               0.932     0.353     0.579
     Fe    44      Dxy                  0.872     0.502     0.370
     Fe    44      S                    0.331     0.359    -0.028
     Fe    44      Px                   0.068     0.108    -0.040
     Fe    44      Py                   0.075     0.134    -0.059
     Fe    44      Pz                   0.078     0.142    -0.064
     Fe    45      Dzz                  0.949     0.351     0.598
     Fe    45      Dzy                  0.943     0.434     0.509
     Fe    45      Dzx                  0.959     0.312     0.647
     Fe    45      Dxx-yy               0.927     0.370     0.556
     Fe    45      Dxy                  0.883     0.526     0.357
     Fe    45      S                    0.406     0.387     0.019
     Fe    45      Px                   0.080     0.090    -0.010
     Fe    45      Py                   0.119     0.178    -0.059
     Fe    45      Pz                   0.058     0.064    -0.006
     Fe    46      Dzz                  0.951     0.348     0.603
     Fe    46      Dzy                  0.942     0.440     0.502
     Fe    46      Dzx                  0.959     0.308     0.652
     Fe    46      Dxx-yy               0.928     0.367     0.561
     Fe    46      Dxy                  0.881     0.532     0.350
     Fe    46      S                    0.408     0.387     0.022
     Fe    46      Px                   0.079     0.088    -0.009
     Fe    46      Py                   0.119     0.178    -0.059
     Fe    46      Pz                   0.057     0.063    -0.005
     Fe    47      Dzz                  0.899     0.461     0.438
     Fe    47      Dzy                  0.902     0.497     0.406
     Fe    47      Dzx                  0.949     0.297     0.652
     Fe    47      Dxx-yy               0.931     0.358     0.574
     Fe    47      Dxy                  0.874     0.496     0.379
     Fe    47      S                    0.333     0.362    -0.028
     Fe    47      Px                   0.071     0.112    -0.041
     Fe    47      Py                   0.076     0.136    -0.059
     Fe    47      Pz                   0.070     0.133    -0.063
     Fe    48      Dzz                  0.951     0.349     0.602
     Fe    48      Dzy                  0.943     0.437     0.506
     Fe    48      Dzx                  0.958     0.312     0.646
     Fe    48      Dxx-yy               0.927     0.369     0.557
     Fe    48      Dxy                  0.882     0.528     0.354
     Fe    48      S                    0.407     0.387     0.019
     Fe    48      Px                   0.078     0.088    -0.010
     Fe    48      Py                   0.118     0.178    -0.060
     Fe    48      Pz                   0.059     0.065    -0.006
  ---------------------------------------------------------------
                           Total:     255.721   142.278   113.443
  ---------------------------------------------------------------
 
     Atomic Populations (Mulliken)
     -----------------------------
Species          Ion Spin      s       p       d       f      Total   Charge(e)   Spin(hbar/2)
==============================================================================================
  H               1   up:     0.582   0.000   0.000   0.000   0.582    -0.226       -0.062
                  1   dn:     0.644   0.000   0.000   0.000   0.644
  H               2   up:     0.581   0.000   0.000   0.000   0.581    -0.235       -0.072
                  2   dn:     0.654   0.000   0.000   0.000   0.654
  H               3   up:     0.632   0.000   0.000   0.000   0.632    -0.321       -0.057
                  3   dn:     0.689   0.000   0.000   0.000   0.689
  H               4   up:     0.560   0.000   0.000   0.000   0.560    -0.207       -0.086
                  4   dn:     0.647   0.000   0.000   0.000   0.647
  H               5   up:     0.604   0.000   0.000   0.000   0.604    -0.273       -0.066
                  5   dn:     0.669   0.000   0.000   0.000   0.669
  H               6   up:     0.600   0.000   0.000   0.000   0.600    -0.269       -0.069
                  6   dn:     0.669   0.000   0.000   0.000   0.669
  H               7   up:     0.619   0.000   0.000   0.000   0.619    -0.291       -0.053
                  7   dn:     0.672   0.000   0.000   0.000   0.672
  H               8   up:     0.604   0.000   0.000   0.000   0.604    -0.276       -0.068
                  8   dn:     0.672   0.000   0.000   0.000   0.672
  H               9   up:     0.602   0.000   0.000   0.000   0.602    -0.268       -0.064
                  9   dn:     0.666   0.000   0.000   0.000   0.666
  H              10   up:     0.603   0.000   0.000   0.000   0.603    -0.271       -0.065
                 10   dn:     0.668   0.000   0.000   0.000   0.668
  H              11   up:     0.602   0.000   0.000   0.000   0.602    -0.273       -0.068
                 11   dn:     0.671   0.000   0.000   0.000   0.671
  H              12   up:     0.602   0.000   0.000   0.000   0.602    -0.273       -0.069
                 12   dn:     0.671   0.000   0.000   0.000   0.671
  H              13   up:     0.595   0.000   0.000   0.000   0.595    -0.256       -0.065
                 13   dn:     0.660   0.000   0.000   0.000   0.660
  H              14   up:     0.591   0.000   0.000   0.000   0.591    -0.258       -0.076
                 14   dn:     0.667   0.000   0.000   0.000   0.667
  Fe              1   up:     0.289   0.131   4.489   0.000   4.909     0.442        2.260
                  1   dn:     0.250   0.135   2.264   0.000   2.649
  Fe              2   up:     0.334   0.236   4.570   0.000   5.140     0.033        2.313
                  2   dn:     0.354   0.393   2.080   0.000   2.827
  Fe              3   up:     0.337   0.211   4.516   0.000   5.065     0.198        2.327
                  3   dn:     0.310   0.248   2.180   0.000   2.738
  Fe              4   up:     0.331   0.197   4.535   0.000   5.063     0.245        2.371
                  4   dn:     0.306   0.235   2.151   0.000   2.692
  Fe              5   up:     0.333   0.249   4.602   0.000   5.184     0.020        2.388
                  5   dn:     0.354   0.403   2.039   0.000   2.796
  Fe              6   up:     0.338   0.229   4.561   0.000   5.129     0.031        2.288
                  6   dn:     0.362   0.390   2.088   0.000   2.841
  Fe              7   up:     0.331   0.204   4.568   0.000   5.104     0.271        2.479
                  7   dn:     0.300   0.224   2.101   0.000   2.625
  Fe              8   up:     0.329   0.215   4.540   0.000   5.083     0.219        2.386
                  8   dn:     0.304   0.248   2.146   0.000   2.698
  Fe              9   up:     0.337   0.227   4.558   0.000   5.122     0.045        2.289
                  9   dn:     0.360   0.380   2.093   0.000   2.833
  Fe             10   up:     0.337   0.230   4.569   0.000   5.136     0.039        2.311
                 10   dn:     0.360   0.387   2.079   0.000   2.825
  Fe             11   up:     0.332   0.225   4.525   0.000   5.082     0.182        2.347
                 11   dn:     0.305   0.266   2.164   0.000   2.735
  Fe             12   up:     0.330   0.244   4.596   0.000   5.170     0.034        2.373
                 12   dn:     0.352   0.393   2.052   0.000   2.797
  Fe             13   up:     0.324   0.195   4.548   0.000   5.066     0.280        2.413
                 13   dn:     0.296   0.217   2.140   0.000   2.653
  Fe             14   up:     0.329   0.193   4.542   0.000   5.064     0.127        2.255
                 14   dn:     0.352   0.318   2.139   0.000   2.809
  Fe             15   up:     0.320   0.197   4.471   0.000   4.989     0.228        2.205
                 15   dn:     0.302   0.231   2.250   0.000   2.784
  Fe             16   up:     0.328   0.196   4.529   0.000   5.054     0.261        2.368
                 16   dn:     0.301   0.223   2.162   0.000   2.686
  Fe             17   up:     0.338   0.225   4.558   0.000   5.122     0.042        2.285
                 17   dn:     0.361   0.381   2.094   0.000   2.836
  Fe             18   up:     0.341   0.228   4.577   0.000   5.145     0.037        2.328
                 18   dn:     0.360   0.389   2.068   0.000   2.818
  Fe             19   up:     0.329   0.198   4.507   0.000   5.035     0.235        2.306
                 19   dn:     0.305   0.227   2.197   0.000   2.729
  Fe             20   up:     0.313   0.199   4.471   0.000   4.983     0.255        2.220
                 20   dn:     0.289   0.220   2.253   0.000   2.763
  Fe             21   up:     0.338   0.232   4.561   0.000   5.132     0.029        2.293
                 21   dn:     0.360   0.391   2.088   0.000   2.839
  Fe             22   up:     0.334   0.241   4.581   0.000   5.156     0.025        2.337
                 22   dn:     0.355   0.404   2.060   0.000   2.819
  Fe             23   up:     0.298   0.189   4.508   0.000   4.995     0.304        2.294
                 23   dn:     0.278   0.196   2.227   0.000   2.701
  Fe             24   up:     0.335   0.227   4.574   0.000   5.136     0.053        2.324
                 24   dn:     0.356   0.383   2.072   0.000   2.811
  Fe             25   up:     0.330   0.226   4.570   0.000   5.126     0.033        2.286
                 25   dn:     0.358   0.393   2.089   0.000   2.841
  Fe             26   up:     0.407   0.255   4.662   0.000   5.324    -0.035        2.613
                 26   dn:     0.387   0.331   1.993   0.000   2.711
  Fe             27   up:     0.331   0.225   4.566   0.000   5.122     0.036        2.281
                 27   dn:     0.359   0.388   2.095   0.000   2.842
  Fe             28   up:     0.331   0.227   4.569   0.000   5.127     0.030        2.285
                 28   dn:     0.360   0.393   2.090   0.000   2.843
  Fe             29   up:     0.407   0.257   4.664   0.000   5.328    -0.032        2.624
                 29   dn:     0.386   0.329   1.990   0.000   2.704
  Fe             30   up:     0.406   0.257   4.664   0.000   5.328    -0.034        2.622
                 30   dn:     0.386   0.332   1.989   0.000   2.706
  Fe             31   up:     0.332   0.220   4.556   0.000   5.108     0.039        2.255
                 31   dn:     0.361   0.385   2.107   0.000   2.853
  Fe             32   up:     0.330   0.224   4.561   0.000   5.115     0.038        2.268
                 32   dn:     0.359   0.387   2.101   0.000   2.847
  Fe             33   up:     0.405   0.258   4.666   0.000   5.329    -0.031        2.626
                 33   dn:     0.385   0.330   1.988   0.000   2.703
  Fe             34   up:     0.407   0.257   4.662   0.000   5.326    -0.033        2.619
                 34   dn:     0.386   0.330   1.991   0.000   2.707
  Fe             35   up:     0.331   0.223   4.564   0.000   5.119     0.039        2.277
                 35   dn:     0.360   0.386   2.096   0.000   2.842
  Fe             36   up:     0.407   0.257   4.665   0.000   5.328    -0.033        2.624
                 36   dn:     0.386   0.330   1.989   0.000   2.704
  Fe             37   up:     0.333   0.218   4.564   0.000   5.115     0.046        2.277
                 37   dn:     0.361   0.381   2.097   0.000   2.838
  Fe             38   up:     0.407   0.254   4.661   0.000   5.323    -0.029        2.617
                 38   dn:     0.385   0.327   1.994   0.000   2.706
  Fe             39   up:     0.334   0.215   4.551   0.000   5.100     0.045        2.245
                 39   dn:     0.362   0.377   2.117   0.000   2.855
  Fe             40   up:     0.332   0.221   4.563   0.000   5.115     0.040        2.270
                 40   dn:     0.360   0.386   2.099   0.000   2.845
  Fe             41   up:     0.406   0.255   4.659   0.000   5.320    -0.033        2.608
                 41   dn:     0.387   0.329   1.996   0.000   2.712
  Fe             42   up:     0.407   0.255   4.657   0.000   5.319    -0.035        2.603
                 42   dn:     0.387   0.330   1.999   0.000   2.716
  Fe             43   up:     0.333   0.221   4.560   0.000   5.114     0.034        2.263
                 43   dn:     0.362   0.386   2.103   0.000   2.851
  Fe             44   up:     0.331   0.221   4.561   0.000   5.113     0.043        2.270
                 44   dn:     0.359   0.384   2.100   0.000   2.844
  Fe             45   up:     0.406   0.257   4.661   0.000   5.323    -0.035        2.612
                 45   dn:     0.387   0.331   1.994   0.000   2.712
  Fe             46   up:     0.408   0.255   4.661   0.000   5.325    -0.034        2.615
                 46   dn:     0.387   0.329   1.994   0.000   2.710
  Fe             47   up:     0.333   0.217   4.556   0.000   5.107     0.042        2.256
                 47   dn:     0.362   0.381   2.108   0.000   2.851
  Fe             48   up:     0.407   0.256   4.661   0.000   5.323    -0.036        2.610
                 48   dn:     0.387   0.331   1.994   0.000   2.713
==============================================================================================
 
                 Bond                   Population        Spin       Length (A)
================================================================================
              H 3  -- Fe 1                   0.06         0.02          1.49848
              H 2  -- Fe 15                  0.38         0.02          1.63711
              H 1  -- H 4                    0.04         0.02          1.66187
              H 4  -- Fe 11                  0.39         0.01          1.66282
              H 4  -- Fe 20                  0.40         0.01          1.67213
              H 7  -- Fe 1                   0.31         0.01          1.67390
              H 14 -- Fe 8                   0.36         0.01          1.67440
              H 1  -- Fe 23                  0.33         0.00          1.68097
              H 6  -- Fe 3                   0.34         0.01          1.69663
              H 2  -- Fe 13                  0.32         0.01          1.70812
[...]
             Fe 36 -- Fe 46                  0.36        -0.01          2.45554
             Fe 28 -- Fe 43                  0.24        -0.01          2.45576
             Fe 7  -- Fe 10                  0.11        -0.01          2.45577
             Fe 35 -- Fe 44                  0.24        -0.02          2.45594
             Fe 28 -- Fe 39                  0.24        -0.01          2.45597
             Fe 39 -- Fe 40                  0.24        -0.02          2.45636
             Fe 25 -- Fe 47                  0.24        -0.02          2.45637
             Fe 8  -- Fe 23                  0.13        -0.01          2.45656
             Fe 37 -- Fe 48                  0.02         0.03          2.45680
             Fe 9  -- Fe 22                  0.24        -0.01          2.45688
             Fe 13 -- Fe 23                 -0.03        -0.01          2.45689
             Fe 25 -- Fe 39                  0.25        -0.02          2.45726
             Fe 18 -- Fe 21                  0.25        -0.01          2.45744
             Fe 7  -- Fe 16                  0.13        -0.02          2.45751
             Fe 8  -- Fe 9                   0.13        -0.01          2.45762
              H 11 -- H 12                   0.01         0.00          2.45772
             Fe 18 -- Fe 43                  0.20        -0.00          2.45808
             Fe 11 -- Fe 20                  0.23        -0.05          2.45860
             Fe 12 -- Fe 22                  0.25        -0.01          2.45931
             Fe 27 -- Fe 40                  0.24        -0.02          2.45936
             Fe 20 -- Fe 23                 -0.05        -0.01          2.45940
             Fe 37 -- Fe 47                  0.23        -0.01          2.46011
             Fe 22 -- Fe 24                  0.21        -0.00          2.46071
             Fe 3  -- Fe 6                   0.13        -0.02          2.46078
             Fe 4  -- Fe 9                   0.13        -0.01          2.46113
             Fe 37 -- Fe 39                  0.23        -0.01          2.46135
             Fe 5  -- Fe 6                   0.25        -0.01          2.46166
             Fe 42 -- Fe 43                  0.02         0.03          2.46183
             Fe 40 -- Fe 41                  0.03         0.03          2.46273
             Fe 25 -- Fe 36                  0.02         0.03          2.46280
             Fe 6  -- Fe 7                   0.13        -0.01          2.46301
             Fe 5  -- Fe 18                  0.25        -0.01          2.46328
             Fe 17 -- Fe 40                  0.21        -0.00          2.46350
             Fe 9  -- Fe 32                  0.20        -0.00          2.46388
             Fe 7  -- Fe 20                  0.08        -0.01          2.46438
             Fe 44 -- Fe 45                  0.02         0.03          2.46448
             Fe 6  -- Fe 31                  0.20        -0.00          2.46579
             Fe 2  -- Fe 3                   0.13        -0.01          2.46652
             Fe 17 -- Fe 18                  0.26        -0.01          2.46686
             Fe 30 -- Fe 31                  0.03         0.03          2.46690
             Fe 32 -- Fe 33                  0.03         0.02          2.46719
             Fe 26 -- Fe 27                  0.02         0.03          2.46736
             Fe 7  -- Fe 8                   0.14        -0.02          2.46826
             Fe 4  -- Fe 5                   0.14        -0.02          2.46827
             Fe 21 -- Fe 44                  0.22        -0.01          2.46854
             Fe 34 -- Fe 35                  0.03         0.03          2.46971
             Fe 22 -- Fe 47                  0.21        -0.01          2.46985
             Fe 13 -- Fe 15                  0.17        -0.04          2.47098
             Fe 8  -- Fe 11                  0.12        -0.02          2.47099
             Fe 2  -- Fe 11                  0.10        -0.00          2.47155
             Fe 28 -- Fe 29                  0.03         0.03          2.47457
             Fe 19 -- Fe 20                  0.13        -0.03          2.47501
              H 6  -- H 9                    0.00         0.00          2.47517
             Fe 10 -- Fe 35                  0.21        -0.00          2.47583
             Fe 12 -- Fe 25                  0.21        -0.01          2.47687
             Fe 18 -- Fe 39                  0.21        -0.01          2.47820
             Fe 9  -- Fe 28                  0.21        -0.00          2.47853
             Fe 22 -- Fe 43                  0.21        -0.00          2.47935
             Fe 24 -- Fe 37                  0.20         0.00          2.47967
             Fe 12 -- Fe 32                  0.21         0.00          2.48048
             Fe 11 -- Fe 13                  0.26        -0.02          2.48092
             Fe 17 -- Fe 37                  0.20         0.00          2.48349
             Fe 13 -- Fe 24                  0.12        -0.01          2.48358
             Fe 2  -- Fe 35                  0.21        -0.00          2.48448
             Fe 2  -- Fe 27                  0.21        -0.00          2.48503
             Fe 5  -- Fe 25                  0.21        -0.01          2.48557
             Fe 5  -- Fe 28                  0.21        -0.00          2.48587
             Fe 24 -- Fe 44                  0.22        -0.01          2.48619
              H 10 -- H 11                   0.01         0.00          2.48651
              H 10 -- H 13                   0.01         0.00          2.48705
             Fe 10 -- Fe 31                  0.21        -0.00          2.48751
             Fe 20 -- Fe 24                  0.17        -0.02          2.48837
             Fe 21 -- Fe 40                  0.22        -0.01          2.48856
             Fe 6  -- Fe 27                  0.22        -0.00          2.48927
             Fe 10 -- Fe 11                  0.15        -0.02          2.49060
             Fe 20 -- Fe 21                  0.13        -0.01          2.49924
             Fe 22 -- Fe 23                  0.19        -0.02          2.50704
             Fe 5  -- Fe 14                  0.24        -0.01          2.51235
              H 2  -- H 9                    0.01         0.00          2.51403
             Fe 14 -- Fe 15                  0.06        -0.01          2.53754
             Fe 1  -- Fe 15                  0.02        -0.01          2.53815
             Fe 14 -- Fe 23                 -0.02        -0.01          2.53891
             Fe 12 -- Fe 14                  0.19        -0.00          2.53998
             Fe 1  -- Fe 23                  0.03        -0.01          2.54180
              H 4  -- Fe 13                  0.03        -0.00          2.54477
              H 13 -- Fe 8                   0.03        -0.00          2.54599
              H 4  -- H 7                    0.01         0.00          2.54769
              H 5  -- H 7                    0.00         0.00          2.56113
              H 7  -- H 8                    0.00         0.00          2.57065
              H 10 -- H 14                   0.00         0.00          2.59912
             Fe 1  -- Fe 5                   0.10        -0.01          2.60058
              H 7  -- Fe 13                  0.01        -0.00          2.64319
             Fe 1  -- Fe 12                  0.06        -0.01          2.65258
              H 10 -- Fe 19                  0.00        -0.00          2.66914
              H 4  -- H 13                  -0.00        -0.00          2.68877
              H 9  -- Fe 4                  -0.02         0.00          2.69064
              H 1  -- Fe 11                 -0.08         0.00          2.69812
              H 5  -- Fe 11                  0.00        -0.00          2.70384
              H 12 -- Fe 7                  -0.00         0.00          2.70737
              H 11 -- Fe 16                 -0.01        -0.00          2.71547
              H 2  -- H 5                    0.00         0.00          2.72000
              H 4  -- Fe 7                   0.01        -0.00          2.72869
              H 8  -- Fe 3                  -0.01        -0.00          2.73433
             Fe 14 -- Fe 37                  0.06         0.00          2.75000
              H 8  -- H 12                   0.01         0.00          2.75333
             Fe 15 -- Fe 19                  0.10        -0.02          2.75613
              H 6  -- Fe 15                 -0.03         0.00          2.77219
              H 6  -- H 10                   0.00         0.00          2.77864
              H 9  -- H 13                   0.00        -0.00          2.77925
             Fe 9  -- Fe 19                  0.01         0.02          2.78188
             Fe 5  -- Fe 15                  0.01         0.01          2.78271
             Fe 13 -- Fe 16                  0.09        -0.02          2.79081
             Fe 4  -- Fe 6                   0.01         0.02          2.79498
             Fe 39 -- Fe 41                 -0.07         0.02          2.80249
              H 14 -- Fe 20                 -0.07         0.00          2.80353
             Fe 47 -- Fe 48                 -0.06         0.02          2.80952
             Fe 3  -- Fe 17                  0.02         0.02          2.81060
              H 7  -- H 11                   0.00         0.00          2.81378
             Fe 8  -- Fe 10                  0.02         0.01          2.81527
             Fe 26 -- Fe 37                 -0.07         0.02          2.81702
             Fe 43 -- Fe 45                 -0.07         0.02          2.81801
             Fe 7  -- Fe 21                  0.02         0.01          2.81821
             Fe 18 -- Fe 28                  0.05         0.01          2.81924
             Fe 1  -- Fe 4                   0.09        -0.02          2.81947
             Fe 6  -- Fe 10                  0.14        -0.01          2.81952
             Fe 40 -- Fe 44                  0.08         0.00          2.81960
             Fe 30 -- Fe 40                 -0.07         0.02          2.82148
             Fe 14 -- Fe 18                  0.18        -0.02          2.82216
             Fe 5  -- Fe 12                  0.17        -0.01          2.82221
             Fe 2  -- Fe 10                  0.16        -0.01          2.82306
             Fe 19 -- Fe 21                 -0.02         0.02          2.82349
             Fe 13 -- Fe 14                  0.05         0.01          2.82376
             Fe 9  -- Fe 12                  0.16        -0.01          2.82406
             Fe 43 -- Fe 47                  0.08         0.00          2.82460
             Fe 12 -- Fe 35                  0.04         0.01          2.82491
             Fe 3  -- Fe 7                   0.10        -0.02          2.82496
             Fe 17 -- Fe 21                  0.14        -0.01          2.82513
             Fe 29 -- Fe 36                  0.36        -0.04          2.82554
             Fe 4  -- Fe 8                   0.07        -0.02          2.82621
             Fe 34 -- Fe 44                 -0.07         0.02          2.82635
             Fe 27 -- Fe 35                  0.08         0.00          2.82657
             Fe 16 -- Fe 18                 -0.00         0.01          2.82784
             Fe 9  -- Fe 31                  0.04         0.01          2.82809
              H 11 -- H 14                   0.00         0.00          2.82837
             Fe 21 -- Fe 24                  0.16        -0.01          2.82865
             Fe 25 -- Fe 38                 -0.07         0.02          2.82919
              H 5  -- H 12                   0.00        -0.00          2.82931
             Fe 7  -- Fe 11                  0.05        -0.01          2.82936
             Fe 29 -- Fe 39                 -0.07         0.02          2.83005
             Fe 28 -- Fe 32                  0.07         0.00          2.83010
             Fe 32 -- Fe 46                 -0.06         0.02          2.83015
             Fe 26 -- Fe 30                  0.36        -0.04          2.83115
             Fe 26 -- Fe 34                  0.36        -0.04          2.83115
             Fe 38 -- Fe 42                  0.37        -0.04          2.83158
             Fe 41 -- Fe 48                  0.36        -0.04          2.83159
             Fe 38 -- Fe 46                  0.37        -0.04          2.83164
             Fe 28 -- Fe 42                 -0.07         0.02          2.83180
             Fe 5  -- Fe 27                  0.04         0.01          2.83197
             Fe 11 -- Fe 24                 -0.03         0.02          2.83232
             Fe 39 -- Fe 43                  0.08         0.01          2.83234
             Fe 25 -- Fe 32                  0.08         0.00          2.83251
             Fe 18 -- Fe 22                  0.13        -0.01          2.83328
             Fe 41 -- Fe 45                  0.36        -0.04          2.83357
             Fe 25 -- Fe 26                 -0.07         0.02          2.83357
             Fe 45 -- Fe 48                  0.36        -0.04          2.83361
             Fe 32 -- Fe 34                 -0.06         0.02          2.83384
             Fe 28 -- Fe 30                 -0.06         0.02          2.83484
             Fe 31 -- Fe 33                 -0.07         0.02          2.83517
             Fe 31 -- Fe 35                  0.08         0.00          2.83532
             Fe 42 -- Fe 46                  0.36        -0.04          2.83556
             Fe 25 -- Fe 28                  0.08         0.00          2.83618
             Fe 12 -- Fe 23                 -0.08         0.02          2.83624
             Fe 30 -- Fe 34                  0.36        -0.04          2.83646
             Fe 29 -- Fe 33                  0.36        -0.04          2.83660
             Fe 33 -- Fe 36                  0.36        -0.04          2.83662
             Fe 33 -- Fe 43                 -0.07         0.02          2.83667
             Fe 27 -- Fe 31                  0.08         0.00          2.83689
             Fe 22 -- Fe 32                  0.04         0.01          2.83704
             Fe 37 -- Fe 44                  0.08         0.00          2.83762
             Fe 36 -- Fe 47                 -0.07         0.02          2.83793
             Fe 27 -- Fe 29                 -0.07         0.02          2.83934
             Fe 35 -- Fe 36                 -0.07         0.02          2.83951
             Fe 10 -- Fe 44                  0.04         0.01          2.83972
             Fe 16 -- Fe 20                  0.07        -0.02          2.84055
              H 2  -- Fe 1                  -0.01        -0.00          2.84098
             Fe 17 -- Fe 27                  0.04         0.01          2.84125
             Fe 31 -- Fe 45                 -0.07         0.02          2.84156
             Fe 37 -- Fe 40                  0.08         0.00          2.84157
             Fe 39 -- Fe 47                  0.07         0.01          2.84190
             Fe 14 -- Fe 25                  0.05         0.01          2.84222
             Fe 35 -- Fe 48                 -0.07         0.02          2.84226
             Fe 27 -- Fe 41                 -0.07         0.02          2.84281
             Fe 40 -- Fe 42                 -0.07         0.02          2.84431
             Fe 15 -- Fe 23                  0.04        -0.01          2.84483
             Fe 3  -- Fe 11                  0.07        -0.02          2.84487
             Fe 17 -- Fe 24                  0.12        -0.01          2.84521
             Fe 6  -- Fe 40                  0.04         0.01          2.84710
             Fe 14 -- Fe 22                  0.17        -0.01          2.84755
             Fe 44 -- Fe 46                 -0.07         0.02          2.85081
             Fe 37 -- Fe 38                 -0.08         0.02          2.85111
             Fe 18 -- Fe 40                  0.04         0.01          2.85120
             Fe 20 -- Fe 22                 -0.00         0.01          2.85162
             Fe 22 -- Fe 44                  0.03         0.01          2.85207
             Fe 5  -- Fe 9                   0.15        -0.01          2.85254
             Fe 8  -- Fe 22                 -0.05         0.02          2.85260
             Fe 2  -- Fe 37                  0.04         0.01          2.85294
             Fe 2  -- Fe 13                 -0.06         0.02          2.85349
             Fe 6  -- Fe 16                 -0.03         0.02          2.85394
             Fe 21 -- Fe 43                  0.03         0.01          2.85536
             Fe 2  -- Fe 6                   0.15        -0.01          2.85625
             Fe 24 -- Fe 35                  0.04         0.01          2.85672
             Fe 17 -- Fe 39                  0.03         0.01          2.86550
             Fe 24 -- Fe 47                  0.03         0.01          2.86592
             Fe 3  -- Fe 5                  -0.04         0.03          2.86690
             Fe 6  -- Fe 28                  0.04         0.01          2.86708
             Fe 13 -- Fe 20                 -0.02        -0.02          2.86859
             Fe 9  -- Fe 43                  0.03         0.01          2.87001
              H 7  -- H 14                   0.00         0.00          2.87014
             Fe 21 -- Fe 31                  0.04         0.01          2.87055
             Fe 1  -- Fe 8                   0.08        -0.02          2.87249
             Fe 7  -- Fe 9                  -0.04         0.02          2.87560
             Fe 1  -- Fe 2                   0.03         0.01          2.87697
             Fe 10 -- Fe 32                  0.03         0.01          2.87718
             Fe 23 -- Fe 24                  0.02         0.02          2.87938
             Fe 15 -- Fe 17                 -0.04         0.02          2.88136
             Fe 12 -- Fe 47                  0.03         0.01          2.88205
             Fe 2  -- Fe 25                  0.03         0.01          2.88634
             Fe 4  -- Fe 18                 -0.07         0.03          2.88773
             Fe 11 -- Fe 12                 -0.03         0.02          2.89168
             Fe 5  -- Fe 39                  0.02         0.01          2.89333
             Fe 10 -- Fe 20                 -0.03         0.02          2.89604
              H 13 -- Fe 22                 -0.14         0.02          2.89637
             Fe 19 -- Fe 23                  0.07        -0.02          2.89926
              H 1  -- H 5                    0.00         0.00          2.91117
              H 5  -- H 8                   -0.00         0.00          2.91857
              H 10 -- Fe 21                 -0.16         0.02          2.94115
              H 1  -- Fe 24                 -0.12         0.01          2.94841
              H 12 -- Fe 9                  -0.16         0.02          2.95742
              H 3  -- Fe 8                  -0.03         0.00          2.95937
              H 9  -- Fe 18                 -0.18         0.02          2.96945
              H 11 -- Fe 6                  -0.16         0.02          2.97708
================================================================================
 

Writing analysis data to neb-calc_1-9.castep_bin

Writing model to neb-calc_1-9.check
 
 A BibTeX formatted list of references used in this run has been written to 
 neb-calc_1-9.bib
 
Initialisation time =     10.33 s
Calculation time    =  20345.58 s
Finalisation time   =      6.49 s
Total time          =  20362.40 s
Peak Memory Use     = 2129364 kB
  
Overall parallel efficiency rating: Excellent (90%)                             
  
Data was distributed by:-
G-vector (16-way); efficiency rating: Excellent (90%)                           
k-point (8-way); efficiency rating: Excellent (99%)                             
