 +-------------------------------------------------+
 |                                                 |
 |      CCC   AA    SSS  TTTTT  EEEEE  PPPP        |
 |     C     A  A  S       T    E      P   P       |
 |     C     AAAA   SS     T    EEE    PPPP        |
 |     C     A  A     S    T    E      P           |
 |      CCC  A  A  SSS     T    EEEEE  P           |
 |                                                 |
 +-------------------------------------------------+
 |                                                 |
 | Welcome to Academic Release CASTEP version 21.11|          
 | Ab Initio Total Energy Program                  |
 |                                                 |
 | Authors:                                        |
 | M. Segall, M. Probert, C. Pickard, P. Hasnip,   |
 | S. Clark, K. Refson, J. R. Yates, M. Payne      |
 |                                                 |
 | Contributors:                                   |
 | P. Lindan, P. Haynes, J. White, V. Milman,      |
 | N. Govind, M. Gibson, P. Tulip, V. Cocula,      |
 | B. Montanari, D. Quigley, M. Glover,            |
 | L. Bernasconi, A. Perlov, M. Plummer,           |
 | E. McNellis, J. Meyer, J. Gale, D. Jochym       |
 | J. Aarons, B. Walker, R. Gillen, D. Jones       |
 | T. Green, I. J. Bush, C. J. Armstrong,          |
 | E. J. Higgins, E. L. Brown, M. S. McFly,        |
 | J. Wilkins, B-C. Shih, P. J. P. Byrne,          |
 | R. J. Maurer, J. C. Womack, J. Dziedzic,        |
 | A. Bartok-Partay, L. LeBlanc                    |
 |                                                 |
 | Copyright (c) 2000 - 2021                       |
 |                                                 |
 |     Distributed under license from Cambridge    |
 |     Enterprise for academic use only.           |
 |                                                 |
 | Please cite                                     |
 |                                                 |
 |     "First principles methods using CASTEP"     |
 |                                                 |
 |         Zeitschrift fuer Kristallographie       |
 |           220(5-6) pp. 567-570 (2005)           |
 |                                                 |
 | S. J. Clark, M. D. Segall, C. J. Pickard,       |
 | P. J. Hasnip, M. J. Probert, K. Refson,         |
 | M. C. Payne                                     |
 |                                                 |
 |       in all publications arising from          |
 |              your use of CASTEP                 |
 |                                                 |
 +-------------------------------------------------+
 |                                                 |
 |              http://www.castep.org              |
 |                                                 |
 +-------------------------------------------------+
 
 
 
 Compiled for linux_x86_64_cray-XT on Tue, 01 Mar 2022 09:19:15 +0000
 from code version 7d4405a8a+  HEAD  Sat Nov 27 13:38:33 2021 +0000
 Compiler: Cray Fortran 12.0.3; Optimisation: fast
 MATHLIBS: LibSci (LAPACK version 3.6.1)
 FFT Lib : fftw3 version commercial-fftw-3.3.8-sse2-avx-avx2-avx2_128
 Fundamental constants values: CODATA 2014
 
 Run started: Mon, 27 Jun 2022 07:22:37 -0100
 Warning in parameters_read: presetting of magnetic moments on atoms cannot be guaranteed when metals_method /= density mixing
 
 Atomic calculation performed for H: 1s1
 
 Converged in 41 iterations to an ae energy of -12.488 eV
 
   ============================================================                
   | Pseudopotential Report - Date of generation 27-06-2022   |                
   ------------------------------------------------------------                
   | Element: H Ionic charge:  1.00 Level of theory: PBE      |                
   | Atomic Solver: Koelling-Harmon                           |                
   |                                                          |                
   |               Reference Electronic Structure             |                
   |         Orbital         Occupation         Energy        |                
   |            1s              1.000           -0.239        |                
   |                                                          |                
   |                 Pseudopotential Definition               |                
   |        Beta     l      e      Rc     scheme   norm       |                
   |          1      0   -0.239   0.599     qc      0         |                
   |          2      0    0.250   0.599     qc      0         |                
   |         loc     1    0.000   0.599     pn      0         |                
   |                                                          |                
   | Augmentation charge Rinner = 0.421                       |                
   | No partial core correction                               |                
   ------------------------------------------------------------                
   | "1|0.6|13|15|17|10(qc=8)"                                |                
   ------------------------------------------------------------                
   |      Author: Chris J. Pickard, Cambridge University      |                
   ============================================================                
 
 Atomic calculation performed for Fe: 1s2 2s2 2p6 3s2 3p6 3d6 4s2
 
 Converged in 96 iterations to an ae energy of -34625.101 eV
 
   ============================================================                
   | Pseudopotential Report - Date of generation 27-06-2022   |                
   ------------------------------------------------------------                
   | Element: Fe Ionic charge:  8.00 Level of theory: PBE     |                
   | Atomic Solver: Koelling-Harmon                           |                
   |                                                          |                
   |               Reference Electronic Structure             |                
   |         Orbital         Occupation         Energy        |                
   |            3d              6.000           -0.276        |                
   |            4s              2.000           -0.194        |                
   |                                                          |                
   |                 Pseudopotential Definition               |                
   |        Beta     l      e      Rc     scheme   norm       |                
   |          1      0   -0.194   2.399     qc      0         |                
   |          2      0    0.250   2.399     qc      0         |                
   |          3      1    0.000   2.399     qc      0         |                
   |          4      1    0.250   2.399     qc      0         |                
   |          5      2   -0.276   1.997     qc      0         |                
   |          6      2    0.250   1.997     qc      0         |                
   |         loc     3    0.000   2.399     pn      0         |                
   |                                                          |                
   | Augmentation charge Rinner = 1.000                       |                
   | Partial core correction Rc = 1.000                       |                
   ------------------------------------------------------------                
   | "3|2.4|2.4|1.0|8|9|10|40:41:32U2U2(qc=5.5)"              |                
   ------------------------------------------------------------                
   |      Author: Chris J. Pickard, Cambridge University      |                
   ============================================================                
 
 Pseudo atomic calculation performed for H 1s1
 
 Converged in 16 iterations to a total energy of -12.4388 eV
 
 Pseudo atomic calculation performed for Fe 3d6 4s2
 
 Converged in 39 iterations to a total energy of -853.7730 eV
 Calculation parallelised over 128 processes.
 Data is distributed by G-vector(16-way) and k-point(8-way)

 ************************************ Title ************************************
 

 ***************************** General Parameters ******************************
  
 output verbosity                               : normal  (1)
 write checkpoint data to                       : neb-calc_1-10.check
 type of calculation                            : single point energy
 stress calculation                             : on
 density difference calculation                 : off
 electron localisation func (ELF) calculation   : off
 Hirshfeld analysis                             : off
 polarisation (Berry phase) analysis            : off
 molecular orbital projected DOS                : off
 deltaSCF calculation                           : off
 unlimited duration calculation
 timing information                             : on
 memory usage estimate                          : on
 write extra output files                       : on
 write final potential to formatted file        : off
 write final density to formatted file          : off
 write BibTeX reference list                    : on
 write OTFG pseudopotential files               : on
 write electrostatic potential file             : on
 write bands file                               : on
 checkpoint writing                             : both castep_bin and check files
  
 output         length unit                     : A
 output           mass unit                     : amu
 output           time unit                     : ps
 output         charge unit                     : e
 output           spin unit                     : hbar/2
 output         energy unit                     : eV
 output          force unit                     : eV/A
 output       velocity unit                     : A/ps
 output       pressure unit                     : GPa
 output     inv_length unit                     : 1/A
 output      frequency unit                     : cm-1
 output force constant unit                     : eV/A**2
 output         volume unit                     : A**3
 output   IR intensity unit                     : (D/A)**2/amu
 output         dipole unit                     : D
 output         efield unit                     : eV/A/e
 output        entropy unit                     : J/mol/K
 output    efield chi2 unit                     : pm/V
  
 wavefunctions paging                           : none
 random number generator seed                   : randomised (72237615)
 data distribution                              : optimal for this architecture
 optimization strategy                          : balance speed and memory

 *********************** Exchange-Correlation Parameters ***********************
  
 using functional                               : Perdew Burke Ernzerhof
 relativistic treatment                         : Koelling-Harmon
 DFT+D: Semi-empirical dispersion correction    : off

 ************************* Pseudopotential Parameters **************************
  
 pseudopotential representation                 : reciprocal space
 <beta|phi> representation                      : reciprocal space
 spin-orbit coupling                            : off

 **************************** Basis Set Parameters *****************************
  
 plane wave basis set cut-off                   :   400.0000   eV
 size of standard grid                          :     1.7500
 size of   fine   gmax                          :    17.9311   1/A
 finite basis set correction                    : automatic
 number of sample energies                      :          3
           sample  spacing                      :     5.0000   eV

 **************************** Electronic Parameters ****************************
  
 number of  electrons                           :  398.0    
 net charge of system                           :  0.000    
 net spin   of system                           :  120.0    
 number of  up  spins                           :  259.0    
 number of down spins                           :  139.0    
 treating system as spin-polarized
 number of bands                                :       1036
 electron temperature                           :     0.0000   K

 ********************* Electronic Minimization Parameters **********************
  
 Method: Treating system as metallic with ensemble DFT treatment of electrons,
         and number of  SD  steps               :          1
         and number of  CG  steps               :          4
  
 total energy / atom convergence tol.           : 0.1000E-06   eV
 max force / atom convergence tol.              : ignored
 convergence tolerance window                   :          3   cycles
 max. number of SCF cycles                      :        200
 number of fixed-spin iterations                :         10
 smearing scheme                                : Gaussian
 smearing width                                 : 0.2000       eV
 Fermi energy convergence tolerance             : 0.2721E-13   eV
 number of occupancy cycles                     :          6
 periodic dipole correction                     : NONE

 *********************** Population Analysis Parameters ************************
  
 Population analysis with cutoff                :  3.000       A
 Population analysis output                     : summary and pdos components

 *******************************************************************************
  
 
                           -------------------------------
                                      Unit Cell
                           -------------------------------
        Real Lattice(A)                      Reciprocal Lattice(1/A)
     8.0127110     0.0000000     0.0000000        0.784152244   0.000000000   0.000000000
     0.0000000     8.4987630     0.0000000        0.000000000   0.739305862   0.000000000
     0.0000000     0.0000000    18.0000000        0.000000000   0.000000000   0.349065850
 
                       Lattice parameters(A)       Cell Angles
                    a =      8.012711          alpha =   90.000000
                    b =      8.498763          beta  =   90.000000
                    c =     18.000000          gamma =   90.000000
 
                       Current cell volume =          1225.766372       A**3
                                   density =             2.198356   AMU/A**3
                                           =             3.650456     g/cm^3
 
                           -------------------------------
                                     Cell Contents
                           -------------------------------
                         Total number of ions in cell =   62
                      Total number of species in cell =    2
                        Max number of any one species =   48
 
            xxxxxxxxxxxxxxxxxxxxxxxxxxxxxxxxxxxxxxxxxxxxxxxxxxxxxxxxxxxx
            x  Element    Atom        Fractional coordinates of atoms  x
            x            Number           u          v          w      x
            x----------------------------------------------------------x
            x  H            1         0.334491   0.414917   0.230990   x 
            x  H            2         0.449730   0.601999   0.226829   x 
            x  H            3         0.649472   0.554663   0.329471   x 
            x  H            4         0.150277   0.328370   0.212885   x 
            x  H            5         0.700848   0.409063   0.223914   x 
            x  H            6         0.200173   0.747355   0.227037   x 
            x  H            7         0.966184   0.580024   0.221428   x 
            x  H            8         0.698825   0.750498   0.224205   x 
            x  H            9         0.452606   0.907754   0.229252   x 
            x  H           10         0.210063   0.073454   0.228675   x 
            x  H           11         0.951855   0.910058   0.226697   x 
            x  H           12         0.699724   0.074624   0.229059   x 
            x  H           13         0.467270   0.235991   0.231834   x 
            x  H           14         0.937041   0.243101   0.226089   x 
            x  Fe           1         0.780338   0.579232   0.267134   x 
            x  Fe           2         0.014195   0.573971   0.389000   x 
            x  Fe           3         0.020456   0.743761   0.277799   x 
            x  Fe           4         0.770868   0.909124   0.278505   x 
            x  Fe           5         0.765253   0.740070   0.389948   x 
            x  Fe           6         0.013840   0.910292   0.389876   x 
            x  Fe           7         0.018835   0.076209   0.277690   x 
            x  Fe           8         0.765901   0.242929   0.278903   x 
            x  Fe           9         0.764897   0.076053   0.390615   x 
            x  Fe          10         0.014747   0.241870   0.389535   x 
            x  Fe          11         0.019692   0.409040   0.275504   x 
            x  Fe          12         0.765568   0.408069   0.390444   x 
            x  Fe          13         0.269857   0.581356   0.279146   x 
            x  Fe          14         0.503174   0.577165   0.395804   x 
            x  Fe          15         0.522225   0.746654   0.280217   x 
            x  Fe          16         0.269643   0.909096   0.279712   x 
            x  Fe          17         0.261908   0.743662   0.391112   x 
            x  Fe          18         0.515225   0.908743   0.392057   x 
            x  Fe          19         0.519904   0.071267   0.281330   x 
            x  Fe          20         0.270639   0.242924   0.275824   x 
            x  Fe          21         0.264718   0.075781   0.389953   x 
            x  Fe          22         0.514117   0.242169   0.390998   x 
            x  Fe          23         0.519557   0.415379   0.277645   x 
            x  Fe          24         0.262659   0.408383   0.390037   x 
            x  Fe          25         0.762043   0.574089   0.503760   x 
            x  Fe          26         0.013618   0.572194   0.614438   x 
            x  Fe          27         0.011920   0.740506   0.502654   x 
            x  Fe          28         0.762608   0.907915   0.503237   x 
            x  Fe          29         0.763505   0.738429   0.615185   x 
            x  Fe          30         0.013491   0.905319   0.614434   x 
            x  Fe          31         0.012074   0.074311   0.502908   x 
            x  Fe          32         0.762534   0.240776   0.503347   x 
            x  Fe          33         0.763513   0.072195   0.615040   x 
            x  Fe          34         0.013491   0.239068   0.614436   x 
            x  Fe          35         0.011981   0.407906   0.502659   x 
            x  Fe          36         0.763503   0.405964   0.615186   x 
            x  Fe          37         0.261123   0.574178   0.503478   x 
            x  Fe          38         0.513228   0.572198   0.615234   x 
            x  Fe          39         0.511989   0.741633   0.504920   x 
            x  Fe          40         0.261789   0.908646   0.503456   x 
            x  Fe          41         0.263358   0.738785   0.614243   x 
            x  Fe          42         0.513385   0.905372   0.614899   x 
            x  Fe          43         0.512387   0.074766   0.503861   x 
            x  Fe          44         0.261613   0.240252   0.502932   x 
            x  Fe          45         0.263377   0.072195   0.614465   x 
            x  Fe          46         0.513385   0.239016   0.614897   x 
            x  Fe          47         0.511890   0.406832   0.504209   x 
            x  Fe          48         0.263360   0.405609   0.614244   x 
            xxxxxxxxxxxxxxxxxxxxxxxxxxxxxxxxxxxxxxxxxxxxxxxxxxxxxxxxxxxx
 
 
                         No user defined ionic velocities
 
                           -------------------------------
                                   Details of Species
                           -------------------------------
 
                               Mass of species in AMU
                                    H    1.0079400
                                    Fe   55.8450000
 
                          Electric Quadrupole Moment (Barn)
                                    H    0.0028600 Isotope  2
                                    Fe    0.1600000 Isotope 57
         xxxxxxxxxxxxxxxxxxxxxxxxxxxxxxxxxxxxxxxxxxxxxxxxxxxxxxxxxxxxxxxxxxxxxx
         |  Element    Atom         Initial            Initial magnetic       |
         |            Number    spin polarization        moment (uB)     Fix? |
         |--------------------------------------------------------------------|
         | H              1         0.000000              0.000       F       |
         | H              2         0.000000              0.000       F       |
         | H              3         0.000000              0.000       F       |
         | H              4         0.000000              0.000       F       |
         | H              5         0.000000              0.000       F       |
         | H              6         0.000000              0.000       F       |
         | H              7         0.000000              0.000       F       |
         | H              8         0.000000              0.000       F       |
         | H              9         0.000000              0.000       F       |
         | H             10         0.000000              0.000       F       |
         | H             11         0.000000              0.000       F       |
         | H             12         0.000000              0.000       F       |
         | H             13         0.000000              0.000       F       |
         | H             14         0.000000              0.000       F       |
         | Fe             1         0.312500              2.500       F       |
         | Fe             2         0.312500              2.500       F       |
         | Fe             3         0.312500              2.500       F       |
         | Fe             4         0.312500              2.500       F       |
         | Fe             5         0.312500              2.500       F       |
         | Fe             6         0.312500              2.500       F       |
         | Fe             7         0.312500              2.500       F       |
         | Fe             8         0.312500              2.500       F       |
         | Fe             9         0.312500              2.500       F       |
         | Fe            10         0.312500              2.500       F       |
         | Fe            11         0.312500              2.500       F       |
         | Fe            12         0.312500              2.500       F       |
         | Fe            13         0.312500              2.500       F       |
         | Fe            14         0.312500              2.500       F       |
         | Fe            15         0.312500              2.500       F       |
         | Fe            16         0.312500              2.500       F       |
         | Fe            17         0.312500              2.500       F       |
         | Fe            18         0.312500              2.500       F       |
         | Fe            19         0.312500              2.500       F       |
         | Fe            20         0.312500              2.500       F       |
         | Fe            21         0.312500              2.500       F       |
         | Fe            22         0.312500              2.500       F       |
         | Fe            23         0.312500              2.500       F       |
         | Fe            24         0.312500              2.500       F       |
         | Fe            25         0.312500              2.500       F       |
         | Fe            26         0.312500              2.500       F       |
         | Fe            27         0.312500              2.500       F       |
         | Fe            28         0.312500              2.500       F       |
         | Fe            29         0.312500              2.500       F       |
         | Fe            30         0.312500              2.500       F       |
         | Fe            31         0.312500              2.500       F       |
         | Fe            32         0.312500              2.500       F       |
         | Fe            33         0.312500              2.500       F       |
         | Fe            34         0.312500              2.500       F       |
         | Fe            35         0.312500              2.500       F       |
         | Fe            36         0.312500              2.500       F       |
         | Fe            37         0.312500              2.500       F       |
         | Fe            38         0.312500              2.500       F       |
         | Fe            39         0.312500              2.500       F       |
         | Fe            40         0.312500              2.500       F       |
         | Fe            41         0.312500              2.500       F       |
         | Fe            42         0.312500              2.500       F       |
         | Fe            43         0.312500              2.500       F       |
         | Fe            44         0.312500              2.500       F       |
         | Fe            45         0.312500              2.500       F       |
         | Fe            46         0.312500              2.500       F       |
         | Fe            47         0.312500              2.500       F       |
         | Fe            48         0.312500              2.500       F       |
         xxxxxxxxxxxxxxxxxxxxxxxxxxxxxxxxxxxxxxxxxxxxxxxxxxxxxxxxxxxxxxxxxxxxxx
 
 
                          Files used for pseudopotentials:
                                    H 1|0.6|13|15|17|10(qc=8)
                                    Fe 3|2.4|2.4|1.0|8|9|10|40:41:32U2U2(qc=5.5)
 
                           -------------------------------
                              k-Points For BZ Sampling
                           -------------------------------
                       MP grid size for SCF calculation is  4  4  1
                            with an offset of   0.000  0.000  0.000
                       Number of kpoints used =   8
 
                           -------------------------------
                               Symmetry and Constraints
                           -------------------------------
 
                      Maximum deviation from symmetry =  0.00000         ANG
 
                      Number of symmetry operations   = 1
                      Number of ionic constraints     = 3
                      Point group of crystal =     1: C1, 1, 1
                      Space group of crystal =     1: P1, P 1
 
             Set iprint > 1 for details on symmetry rotations/translations
 
                         Centre of mass is constrained
             Set iprint > 1 for details of linear ionic constraints
 
                         Number of cell constraints= 0
                         Cell constraints are:  1 2 3 4 5 6
 
                         External pressure/stress (GPa)
                          0.00000   0.00000   0.00000
                                    0.00000   0.00000
                                              0.00000
  
+---------------- MEMORY AND SCRATCH DISK ESTIMATES PER PROCESS --------------+
|                                                     Memory          Disk    |
| Baseline code, static data and system overhead      771.0 MB         0.0 MB |
| BLAS internal memory storage                          0.0 MB         0.0 MB |
| Model and support data                              262.5 MB        43.6 MB |
| Electronic energy minimisation requirements         456.9 MB         0.0 MB |
| Force calculation requirements                        3.7 MB         0.0 MB |
| Stress calculation requirements                       3.7 MB         0.0 MB |
|                                               ----------------------------- |
| Approx. total storage required per process         1490.3 MB        43.6 MB |
|                                                                             |
| Requirements will fluctuate during execution and may exceed these estimates |
+-----------------------------------------------------------------------------+
Calculating finite basis set correction with  3 cut-off energies.
Calculating total energy with cut-off of  390.000 eV.
Calculating approximate eigenstates for fixed initial Hamiltonian
Cut-off for approx. calculation is  159.419 eV
Improving approx. states at cut-off of  217.691 eV
Resetting cut-off to  389.869 eV
Improving states further at cut-off of  389.869 eV
------------------------------------------------------------------------ <-- SCF
SCF loop      Energy           Fermi           Energy gain       Timer   <-- SCF
                               energy          per atom          (sec)   <-- SCF
------------------------------------------------------------------------ <-- SCF
Initial   3.24721691E+004 -6.22400989E+001                       238.44  <-- SCF
      1  -4.11651215E+004 -1.00858156E+001   1.18769823E+003    1268.38  <-- SCF
      2  -4.15493748E+004 -3.68844603E+000   6.19763415E+000    2278.11  <-- SCF
      3  -4.16118860E+004 -1.26768634E+000   1.00824532E+000    3295.74  <-- SCF
      4  -4.16248905E+004 -2.50831936E-001   2.09750475E-001    4308.92  <-- SCF
      5  -4.16270719E+004  1.02937631E-001   3.51830643E-002    5318.24  <-- SCF
      6  -4.16273733E+004  2.12498006E-001   4.86239906E-003    6257.16  <-- SCF
      7  -4.16273857E+004  2.21780627E-001   1.99959748E-004    7188.43  <-- SCF
      8  -4.16273863E+004  2.21687736E-001   8.50769004E-006    8199.79  <-- SCF
      9  -4.16273864E+004  2.21319035E-001   2.21717062E-006    9344.33  <-- SCF
     10  -4.16276421E+004  1.56198312E-001   4.12375858E-003   10200.57  <-- SCF
     11  -4.16276821E+004  1.43039467E-001   6.45329124E-004   11069.78  <-- SCF
     12  -4.16276863E+004  1.39920829E-001   6.77833214E-005   12089.81  <-- SCF
     13  -4.16276875E+004  1.37603734E-001   1.91347272E-005   13141.89  <-- SCF
     14  -4.16276875E+004  1.37310949E-001   5.31702760E-007   13908.56  <-- SCF
     15  -4.16276875E+004  1.37310949E-001   1.74557545E-009   14471.64  <-- SCF
     16  -4.16276875E+004  1.37310945E-001   1.99585576E-013   15057.89  <-- SCF
------------------------------------------------------------------------ <-- SCF
 
Integrated Spin Density     =     113.552     hbar/2                        
Integrated |Spin Density|   =     118.785     hbar/2                        
 
Final energy, E             =  -41626.70173836     eV
Final free energy (E-TS)    =  -41627.68749676     eV
(energies not corrected for finite basis set)
 
NB est. 0K energy (E-0.5TS)      =  -41627.19461756     eV
 
Calculating total energy with cut-off of  395.000 eV.
------------------------------------------------------------------------ <-- SCF
SCF loop      Energy           Fermi           Energy gain       Timer   <-- SCF
                               energy          per atom          (sec)   <-- SCF
------------------------------------------------------------------------ <-- SCF
Initial  -4.16274834E+004  1.38550605E-001                     15098.99  <-- SCF
      1  -4.16277733E+004  1.37413310E-001   4.67540004E-003   15555.19  <-- SCF
      2  -4.16277733E+004  1.37246454E-001   4.78300246E-007   16126.29  <-- SCF
      3  -4.16277733E+004  1.37246454E-001   5.98756728E-013   16712.11  <-- SCF
      4  -4.16277733E+004  1.37246454E-001   1.39709903E-012   17298.55  <-- SCF
------------------------------------------------------------------------ <-- SCF
 
Integrated Spin Density     =     113.524     hbar/2                        
Integrated |Spin Density|   =     118.756     hbar/2                        
 
Final energy, E             =  -41626.78669124     eV
Final free energy (E-TS)    =  -41627.77328004     eV
(energies not corrected for finite basis set)
 
NB est. 0K energy (E-0.5TS)      =  -41627.27998564     eV
 
Calculating total energy with cut-off of  400.000 eV.
------------------------------------------------------------------------ <-- SCF
SCF loop      Energy           Fermi           Energy gain       Timer   <-- SCF
                               energy          per atom          (sec)   <-- SCF
------------------------------------------------------------------------ <-- SCF
Initial  -4.16275080E+004  1.36393657E-001                     17341.13  <-- SCF
      1  -4.16278435E+004  1.37250618E-001   5.41102560E-003   17772.52  <-- SCF
      2  -4.16278436E+004  1.37213732E-001   1.31628743E-006   18338.11  <-- SCF
      3  -4.16278436E+004  1.37213730E-001   5.18922497E-012   18951.75  <-- SCF
      4  -4.16278436E+004  1.37213730E-001   5.98756728E-013   19540.75  <-- SCF
------------------------------------------------------------------------ <-- SCF
 
Integrated Spin Density     =     113.515     hbar/2                        
Integrated |Spin Density|   =     118.748     hbar/2                        
 
Final energy, E             =  -41626.85667327     eV
Final free energy (E-TS)    =  -41627.84355733     eV
(energies not corrected for finite basis set)
 
NB est. 0K energy (E-0.5TS)      =  -41627.35011530     eV
 
 For future reference: finite basis dEtot/dlog(Ecut) =      -6.040585eV
 Total energy corrected for finite basis set =  -41627.842389 eV
 
 ************************** Forces **************************
 *                                                          *
 *               Cartesian components (eV/A)                *
 * -------------------------------------------------------- *
 *                         x            y            z      *
 *                                                          *
 * H               1     -0.00557     -0.06809      0.03272 *
 * H               2      0.06331     -0.25049     -0.00854 *
 * H               3     -0.63322     -0.11205      0.78208 *
 * H               4     -0.02689     -0.00133     -0.04543 *
 * H               5      0.00148     -0.00007     -0.01171 *
 * H               6      0.01843     -0.02790      0.03057 *
 * H               7      0.04527     -0.03161     -0.05612 *
 * H               8     -0.03127     -0.05951     -0.00262 *
 * H               9     -0.00983     -0.02222     -0.01088 *
 * H              10     -0.01851      0.00612      0.00718 *
 * H              11      0.02102     -0.02975      0.02514 *
 * H              12      0.00632     -0.01151      0.00057 *
 * H              13      0.01014     -0.01265      0.00018 *
 * H              14      0.00771     -0.03121      0.04573 *
 * Fe              1      0.45720      0.12907     -0.40090 *
 * Fe              2     -0.00448      0.12998     -0.00855 *
 * Fe              3      0.04693      0.01917      0.00793 *
 * Fe              4      0.01333     -0.05112      0.01071 *
 * Fe              5     -0.00842      0.00758     -0.03998 *
 * Fe              6      0.00581     -0.11240     -0.00236 *
 * Fe              7     -0.01102      0.09033      0.01678 *
 * Fe              8     -0.00453     -0.09943     -0.03290 *
 * Fe              9     -0.01094      0.06488      0.00963 *
 * Fe             10     -0.01484     -0.01252     -0.01248 *
 * Fe             11     -0.02306     -0.13241      0.01547 *
 * Fe             12     -0.09976      0.10525     -0.15665 *
 * Fe             13      0.00672      0.13965     -0.01503 *
 * Fe             14      0.22614      0.03958     -0.02709 *
 * Fe             15      0.06147      0.10234      0.09986 *
 * Fe             16      0.00448      0.04078      0.01494 *
 * Fe             17      0.00250     -0.02050     -0.01221 *
 * Fe             18     -0.00527     -0.06892      0.01717 *
 * Fe             19      0.00676      0.19780      0.02520 *
 * Fe             20     -0.00055     -0.08120     -0.00867 *
 * Fe             21      0.00225      0.06744      0.00393 *
 * Fe             22     -0.00850     -0.04791     -0.01308 *
 * Fe             23     -0.02874      0.07039     -0.09980 *
 * Fe             24     -0.01524     -0.12456     -0.02358 *
 * Fe             25      0.01826      0.04623     -0.01800 *
 * Fe             26     -0.02642      0.05629     -0.04737 *
 * Fe             27      0.01605      0.01328      0.00678 *
 * Fe             28      0.01151     -0.10901      0.00792 *
 * Fe             29      0.00032      0.07321     -0.07070 *
 * Fe             30     -0.02777     -0.03224     -0.05123 *
 * Fe             31      0.01226      0.07260      0.01253 *
 * Fe             32      0.00833      0.00683      0.01124 *
 * Fe             33     -0.00324      0.06650     -0.08015 *
 * Fe             34     -0.02076      0.04264     -0.04221 *
 * Fe             35      0.01320     -0.09141     -0.00372 *
 * Fe             36      0.00369     -0.05947     -0.06894 *
 * Fe             37      0.01074      0.06402      0.02331 *
 * Fe             38     -0.02261      0.03835      0.03697 *
 * Fe             39      0.00814      0.01409      0.02286 *
 * Fe             40      0.01582     -0.08181      0.00580 *
 * Fe             41     -0.04547      0.05140      0.03714 *
 * Fe             42      0.00135      0.01670      0.02708 *
 * Fe             43      0.01974      0.03386      0.02893 *
 * Fe             44      0.02686      0.02222      0.00625 *
 * Fe             45     -0.02752      0.07950     -0.01554 *
 * Fe             46     -0.00956      0.01883      0.00539 *
 * Fe             47      0.01226     -0.08846      0.01173 *
 * Fe             48     -0.04183     -0.05517     -0.00329 *
 *                                                          *
 ************************************************************
 
 ***************** Stress Tensor *****************
 *                                               *
 *          Cartesian components (GPa)           *
 * --------------------------------------------- *
 *             x             y             z     *
 *                                               *
 *  x     -1.916041     -0.094108      0.072779  *
 *  y     -0.094108      1.064089     -0.267548  *
 *  z      0.072779     -0.267548     -0.498256  *
 *                                               *
 *  Pressure:    0.4501                          *
 *                                               *
 *************************************************
 
 Pseudo atomic calculation performed for H 1s1
 
 Converged in 16 iterations to a total energy of -12.4388 eV
 
 Pseudo atomic calculation performed for Fe 3d6 4s2
 
 Converged in 39 iterations to a total energy of -853.7730 eV
Charge spilling parameter for spin component 1 = 0.16%
Charge spilling parameter for spin component 2 = 0.53%
 
                   Orbital Populations                  
  ---------------------------------------------------------------
     Ion    Atom   Orbital              Up        Down      Spin
  ---------------------------------------------------------------
      H     1      S                    0.582     0.644    -0.062
      H     2      S                    0.586     0.658    -0.071
      H     3      S                    0.630     0.686    -0.056
      H     4      S                    0.559     0.645    -0.086
      H     5      S                    0.604     0.670    -0.066
      H     6      S                    0.602     0.670    -0.068
      H     7      S                    0.615     0.671    -0.056
      H     8      S                    0.604     0.672    -0.068
      H     9      S                    0.601     0.667    -0.066
      H    10      S                    0.602     0.666    -0.064
      H    11      S                    0.602     0.671    -0.069
      H    12      S                    0.602     0.671    -0.069
      H    13      S                    0.594     0.661    -0.067
      H    14      S                    0.591     0.667    -0.077
     Fe     1      Dzz                  0.950     0.471     0.480
     Fe     1      Dzy                  0.899     0.462     0.437
     Fe     1      Dzx                  0.884     0.348     0.536
     Fe     1      Dxx-yy               0.909     0.353     0.556
     Fe     1      Dxy                  0.863     0.600     0.264
     Fe     1      S                    0.294     0.255     0.039
     Fe     1      Px                   0.025     0.033    -0.008
     Fe     1      Py                   0.087     0.103    -0.016
     Fe     1      Pz                   0.034     0.017     0.016
     Fe     2      Dzz                  0.902     0.451     0.450
     Fe     2      Dzy                  0.904     0.480     0.424
     Fe     2      Dzx                  0.952     0.289     0.662
     Fe     2      Dxx-yy               0.937     0.344     0.593
     Fe     2      Dxy                  0.880     0.510     0.370
     Fe     2      S                    0.333     0.353    -0.020
     Fe     2      Px                   0.068     0.111    -0.043
     Fe     2      Py                   0.077     0.124    -0.047
     Fe     2      Pz                   0.091     0.159    -0.068
     Fe     3      Dzz                  0.951     0.444     0.507
     Fe     3      Dzy                  0.870     0.467     0.403
     Fe     3      Dzx                  0.912     0.340     0.571
     Fe     3      Dxx-yy               0.912     0.345     0.567
     Fe     3      Dxy                  0.877     0.577     0.300
     Fe     3      S                    0.337     0.310     0.027
     Fe     3      Px                   0.066     0.096    -0.030
     Fe     3      Py                   0.095     0.110    -0.015
     Fe     3      Pz                   0.052     0.044     0.008
     Fe     4      Dzz                  0.953     0.443     0.509
     Fe     4      Dzy                  0.880     0.462     0.418
     Fe     4      Dzx                  0.916     0.323     0.593
     Fe     4      Dxx-yy               0.914     0.349     0.565
     Fe     4      Dxy                  0.873     0.570     0.303
     Fe     4      S                    0.331     0.305     0.026
     Fe     4      Px                   0.060     0.087    -0.026
     Fe     4      Py                   0.089     0.109    -0.020
     Fe     4      Pz                   0.049     0.040     0.008
     Fe     5      Dzz                  0.911     0.447     0.465
     Fe     5      Dzy                  0.913     0.459     0.455
     Fe     5      Dzx                  0.951     0.293     0.659
     Fe     5      Dxx-yy               0.938     0.340     0.598
     Fe     5      Dxy                  0.886     0.505     0.381
     Fe     5      S                    0.331     0.351    -0.020
     Fe     5      Px                   0.073     0.110    -0.037
     Fe     5      Py                   0.074     0.120    -0.046
     Fe     5      Pz                   0.098     0.166    -0.068
     Fe     6      Dzz                  0.897     0.450     0.447
     Fe     6      Dzy                  0.905     0.487     0.418
     Fe     6      Dzx                  0.950     0.297     0.653
     Fe     6      Dxx-yy               0.934     0.347     0.587
     Fe     6      Dxy                  0.876     0.507     0.370
     Fe     6      S                    0.338     0.362    -0.024
     Fe     6      Px                   0.069     0.108    -0.040
     Fe     6      Py                   0.073     0.124    -0.052
     Fe     6      Pz                   0.089     0.158    -0.069
     Fe     7      Dzz                  0.955     0.419     0.536
     Fe     7      Dzy                  0.891     0.473     0.418
     Fe     7      Dzx                  0.930     0.314     0.616
     Fe     7      Dxx-yy               0.924     0.338     0.586
     Fe     7      Dxy                  0.874     0.549     0.325
     Fe     7      S                    0.331     0.299     0.032
     Fe     7      Px                   0.069     0.093    -0.024
     Fe     7      Py                   0.083     0.092    -0.009
     Fe     7      Pz                   0.052     0.037     0.016
     Fe     8      Dzz                  0.953     0.438     0.515
     Fe     8      Dzy                  0.879     0.473     0.406
     Fe     8      Dzx                  0.908     0.333     0.575
     Fe     8      Dxx-yy               0.919     0.336     0.583
     Fe     8      Dxy                  0.883     0.563     0.320
     Fe     8      S                    0.328     0.303     0.025
     Fe     8      Px                   0.071     0.102    -0.030
     Fe     8      Py                   0.096     0.111    -0.015
     Fe     8      Pz                   0.048     0.036     0.012
     Fe     9      Dzz                  0.898     0.445     0.452
     Fe     9      Dzy                  0.901     0.499     0.402
     Fe     9      Dzx                  0.950     0.297     0.653
     Fe     9      Dxx-yy               0.934     0.344     0.590
     Fe     9      Dxy                  0.878     0.507     0.370
     Fe     9      S                    0.337     0.359    -0.022
     Fe     9      Px                   0.068     0.108    -0.040
     Fe     9      Py                   0.070     0.117    -0.047
     Fe     9      Pz                   0.089     0.157    -0.067
     Fe    10      Dzz                  0.901     0.451     0.450
     Fe    10      Dzy                  0.907     0.482     0.425
     Fe    10      Dzx                  0.953     0.289     0.664
     Fe    10      Dxx-yy               0.934     0.345     0.588
     Fe    10      Dxy                  0.876     0.509     0.367
     Fe    10      S                    0.336     0.359    -0.023
     Fe    10      Px                   0.067     0.103    -0.036
     Fe    10      Py                   0.076     0.126    -0.050
     Fe    10      Pz                   0.087     0.157    -0.070
     Fe    11      Dzz                  0.939     0.483     0.456
     Fe    11      Dzy                  0.879     0.440     0.438
     Fe    11      Dzx                  0.923     0.318     0.605
     Fe    11      Dxx-yy               0.938     0.355     0.583
     Fe    11      Dxy                  0.864     0.543     0.321
     Fe    11      S                    0.333     0.304     0.029
     Fe    11      Px                   0.081     0.117    -0.036
     Fe    11      Py                   0.103     0.116    -0.014
     Fe    11      Pz                   0.047     0.035     0.012
     Fe    12      Dzz                  0.908     0.462     0.447
     Fe    12      Dzy                  0.906     0.463     0.443
     Fe    12      Dzx                  0.949     0.291     0.658
     Fe    12      Dxx-yy               0.935     0.356     0.579
     Fe    12      Dxy                  0.884     0.503     0.381
     Fe    12      S                    0.324     0.346    -0.022
     Fe    12      Px                   0.071     0.106    -0.035
     Fe    12      Py                   0.075     0.121    -0.046
     Fe    12      Pz                   0.091     0.155    -0.065
     Fe    13      Dzz                  0.952     0.437     0.515
     Fe    13      Dzy                  0.882     0.499     0.382
     Fe    13      Dzx                  0.927     0.315     0.612
     Fe    13      Dxx-yy               0.918     0.345     0.573
     Fe    13      Dxy                  0.871     0.543     0.328
     Fe    13      S                    0.324     0.297     0.028
     Fe    13      Px                   0.066     0.097    -0.030
     Fe    13      Py                   0.076     0.086    -0.010
     Fe    13      Pz                   0.050     0.033     0.016
     Fe    14      Dzz                  0.900     0.468     0.432
     Fe    14      Dzy                  0.898     0.502     0.396
     Fe    14      Dzx                  0.922     0.307     0.615
     Fe    14      Dxx-yy               0.927     0.365     0.563
     Fe    14      Dxy                  0.879     0.521     0.358
     Fe    14      S                    0.325     0.350    -0.025
     Fe    14      Px                   0.047     0.075    -0.028
     Fe    14      Py                   0.084     0.135    -0.051
     Fe    14      Pz                   0.056     0.104    -0.048
     Fe    15      Dzz                  0.947     0.470     0.477
     Fe    15      Dzy                  0.857     0.492     0.364
     Fe    15      Dzx                  0.906     0.337     0.569
     Fe    15      Dxx-yy               0.914     0.366     0.548
     Fe    15      Dxy                  0.865     0.559     0.307
     Fe    15      S                    0.324     0.305     0.019
     Fe    15      Px                   0.070     0.099    -0.029
     Fe    15      Py                   0.089     0.110    -0.021
     Fe    15      Pz                   0.038     0.026     0.012
     Fe    16      Dzz                  0.950     0.444     0.505
     Fe    16      Dzy                  0.869     0.490     0.379
     Fe    16      Dzx                  0.917     0.328     0.589
     Fe    16      Dxx-yy               0.910     0.345     0.565
     Fe    16      Dxy                  0.875     0.568     0.306
     Fe    16      S                    0.328     0.302     0.026
     Fe    16      Px                   0.065     0.093    -0.029
     Fe    16      Py                   0.086     0.098    -0.013
     Fe    16      Pz                   0.046     0.034     0.012
     Fe    17      Dzz                  0.897     0.449     0.448
     Fe    17      Dzy                  0.902     0.493     0.409
     Fe    17      Dzx                  0.949     0.296     0.653
     Fe    17      Dxx-yy               0.935     0.347     0.588
     Fe    17      Dxy                  0.874     0.510     0.364
     Fe    17      S                    0.339     0.362    -0.022
     Fe    17      Px                   0.065     0.102    -0.037
     Fe    17      Py                   0.070     0.120    -0.050
     Fe    17      Pz                   0.089     0.156    -0.067
     Fe    18      Dzz                  0.900     0.444     0.456
     Fe    18      Dzy                  0.905     0.488     0.417
     Fe    18      Dzx                  0.951     0.297     0.654
     Fe    18      Dxx-yy               0.936     0.346     0.590
     Fe    18      Dxy                  0.886     0.494     0.391
     Fe    18      S                    0.340     0.360    -0.021
     Fe    18      Px                   0.074     0.115    -0.040
     Fe    18      Py                   0.072     0.126    -0.054
     Fe    18      Pz                   0.082     0.149    -0.067
     Fe    19      Dzz                  0.951     0.423     0.528
     Fe    19      Dzy                  0.862     0.520     0.342
     Fe    19      Dzx                  0.912     0.340     0.571
     Fe    19      Dxx-yy               0.911     0.336     0.574
     Fe    19      Dxy                  0.875     0.571     0.305
     Fe    19      S                    0.330     0.305     0.025
     Fe    19      Px                   0.070     0.098    -0.028
     Fe    19      Py                   0.081     0.092    -0.011
     Fe    19      Pz                   0.049     0.036     0.013
     Fe    20      Dzz                  0.933     0.530     0.404
     Fe    20      Dzy                  0.861     0.495     0.366
     Fe    20      Dzx                  0.900     0.328     0.572
     Fe    20      Dxx-yy               0.902     0.361     0.541
     Fe    20      Dxy                  0.854     0.572     0.282
     Fe    20      S                    0.309     0.287     0.022
     Fe    20      Px                   0.066     0.090    -0.024
     Fe    20      Py                   0.086     0.098    -0.012
     Fe    20      Pz                   0.046     0.036     0.010
     Fe    21      Dzz                  0.897     0.448     0.449
     Fe    21      Dzy                  0.904     0.482     0.422
     Fe    21      Dzx                  0.949     0.300     0.649
     Fe    21      Dxx-yy               0.934     0.343     0.591
     Fe    21      Dxy                  0.878     0.514     0.365
     Fe    21      S                    0.339     0.360    -0.022
     Fe    21      Px                   0.068     0.109    -0.041
     Fe    21      Py                   0.074     0.122    -0.048
     Fe    21      Pz                   0.090     0.159    -0.069
     Fe    22      Dzz                  0.908     0.437     0.471
     Fe    22      Dzy                  0.905     0.484     0.421
     Fe    22      Dzx                  0.950     0.294     0.656
     Fe    22      Dxx-yy               0.936     0.343     0.593
     Fe    22      Dxy                  0.881     0.502     0.379
     Fe    22      S                    0.334     0.355    -0.021
     Fe    22      Px                   0.070     0.110    -0.040
     Fe    22      Py                   0.079     0.132    -0.053
     Fe    22      Pz                   0.093     0.162    -0.069
     Fe    23      Dzz                  0.951     0.503     0.448
     Fe    23      Dzy                  0.894     0.473     0.422
     Fe    23      Dzx                  0.893     0.339     0.554
     Fe    23      Dxx-yy               0.894     0.322     0.572
     Fe    23      Dxy                  0.880     0.581     0.299
     Fe    23      S                    0.304     0.282     0.022
     Fe    23      Px                   0.058     0.069    -0.011
     Fe    23      Py                   0.088     0.095    -0.007
     Fe    23      Pz                   0.050     0.041     0.008
     Fe    24      Dzz                  0.902     0.453     0.448
     Fe    24      Dzy                  0.909     0.470     0.439
     Fe    24      Dzx                  0.951     0.294     0.657
     Fe    24      Dxx-yy               0.935     0.346     0.589
     Fe    24      Dxy                  0.877     0.510     0.368
     Fe    24      S                    0.336     0.357    -0.021
     Fe    24      Px                   0.061     0.099    -0.038
     Fe    24      Py                   0.076     0.124    -0.049
     Fe    24      Pz                   0.092     0.160    -0.068
     Fe    25      Dzz                  0.903     0.452     0.451
     Fe    25      Dzy                  0.913     0.487     0.426
     Fe    25      Dzx                  0.951     0.297     0.654
     Fe    25      Dxx-yy               0.933     0.352     0.581
     Fe    25      Dxy                  0.873     0.498     0.375
     Fe    25      S                    0.329     0.357    -0.028
     Fe    25      Px                   0.071     0.112    -0.040
     Fe    25      Py                   0.077     0.137    -0.060
     Fe    25      Pz                   0.079     0.146    -0.067
     Fe    26      Dzz                  0.951     0.349     0.602
     Fe    26      Dzy                  0.944     0.433     0.511
     Fe    26      Dzx                  0.959     0.311     0.647
     Fe    26      Dxx-yy               0.927     0.370     0.557
     Fe    26      Dxy                  0.883     0.529     0.354
     Fe    26      S                    0.407     0.387     0.020
     Fe    26      Px                   0.078     0.089    -0.010
     Fe    26      Py                   0.118     0.177    -0.059
     Fe    26      Pz                   0.059     0.065    -0.006
     Fe    27      Dzz                  0.903     0.455     0.448
     Fe    27      Dzy                  0.910     0.484     0.427
     Fe    27      Dzx                  0.949     0.298     0.651
     Fe    27      Dxx-yy               0.933     0.351     0.581
     Fe    27      Dxy                  0.872     0.505     0.367
     Fe    27      S                    0.331     0.358    -0.028
     Fe    27      Px                   0.068     0.108    -0.040
     Fe    27      Py                   0.077     0.137    -0.059
     Fe    27      Pz                   0.080     0.144    -0.063
     Fe    28      Dzz                  0.902     0.455     0.448
     Fe    28      Dzy                  0.912     0.485     0.427
     Fe    28      Dzx                  0.950     0.297     0.652
     Fe    28      Dxx-yy               0.932     0.355     0.578
     Fe    28      Dxy                  0.874     0.497     0.377
     Fe    28      S                    0.331     0.359    -0.029
     Fe    28      Px                   0.069     0.109    -0.040
     Fe    28      Py                   0.077     0.138    -0.061
     Fe    28      Pz                   0.081     0.146    -0.064
     Fe    29      Dzz                  0.952     0.347     0.605
     Fe    29      Dzy                  0.944     0.437     0.506
     Fe    29      Dzx                  0.959     0.307     0.653
     Fe    29      Dxx-yy               0.928     0.366     0.563
     Fe    29      Dxy                  0.882     0.532     0.349
     Fe    29      S                    0.407     0.386     0.021
     Fe    29      Px                   0.079     0.087    -0.008
     Fe    29      Py                   0.119     0.178    -0.059
     Fe    29      Pz                   0.059     0.065    -0.005
     Fe    30      Dzz                  0.952     0.347     0.604
     Fe    30      Dzy                  0.945     0.432     0.512
     Fe    30      Dzx                  0.959     0.312     0.647
     Fe    30      Dxx-yy               0.928     0.368     0.560
     Fe    30      Dxy                  0.883     0.529     0.354
     Fe    30      S                    0.406     0.386     0.020
     Fe    30      Px                   0.079     0.089    -0.009
     Fe    30      Py                   0.118     0.178    -0.059
     Fe    30      Pz                   0.060     0.065    -0.005
     Fe    31      Dzz                  0.900     0.458     0.442
     Fe    31      Dzy                  0.907     0.490     0.417
     Fe    31      Dzx                  0.949     0.298     0.651
     Fe    31      Dxx-yy               0.931     0.355     0.576
     Fe    31      Dxy                  0.870     0.506     0.364
     Fe    31      S                    0.332     0.360    -0.029
     Fe    31      Px                   0.067     0.107    -0.040
     Fe    31      Py                   0.075     0.136    -0.061
     Fe    31      Pz                   0.078     0.142    -0.064
     Fe    32      Dzz                  0.901     0.456     0.444
     Fe    32      Dzy                  0.908     0.493     0.415
     Fe    32      Dzx                  0.950     0.295     0.655
     Fe    32      Dxx-yy               0.932     0.354     0.579
     Fe    32      Dxy                  0.871     0.502     0.369
     Fe    32      S                    0.331     0.359    -0.028
     Fe    32      Px                   0.069     0.108    -0.040
     Fe    32      Py                   0.076     0.136    -0.060
     Fe    32      Pz                   0.079     0.142    -0.063
     Fe    33      Dzz                  0.951     0.349     0.602
     Fe    33      Dzy                  0.946     0.432     0.513
     Fe    33      Dzx                  0.959     0.310     0.649
     Fe    33      Dxx-yy               0.928     0.369     0.559
     Fe    33      Dxy                  0.884     0.526     0.358
     Fe    33      S                    0.405     0.385     0.020
     Fe    33      Px                   0.080     0.088    -0.009
     Fe    33      Py                   0.120     0.177    -0.058
     Fe    33      Pz                   0.059     0.064    -0.005
     Fe    34      Dzz                  0.952     0.346     0.606
     Fe    34      Dzy                  0.943     0.436     0.507
     Fe    34      Dzx                  0.959     0.310     0.649
     Fe    34      Dxx-yy               0.928     0.366     0.563
     Fe    34      Dxy                  0.881     0.532     0.349
     Fe    34      S                    0.406     0.385     0.021
     Fe    34      Px                   0.079     0.088    -0.009
     Fe    34      Py                   0.118     0.177    -0.059
     Fe    34      Pz                   0.059     0.065    -0.006
     Fe    35      Dzz                  0.900     0.460     0.440
     Fe    35      Dzy                  0.911     0.482     0.429
     Fe    35      Dzx                  0.949     0.297     0.652
     Fe    35      Dxx-yy               0.931     0.354     0.577
     Fe    35      Dxy                  0.874     0.502     0.371
     Fe    35      S                    0.331     0.359    -0.028
     Fe    35      Px                   0.068     0.108    -0.040
     Fe    35      Py                   0.076     0.136    -0.060
     Fe    35      Pz                   0.079     0.142    -0.063
     Fe    36      Dzz                  0.951     0.350     0.601
     Fe    36      Dzy                  0.944     0.433     0.511
     Fe    36      Dzx                  0.959     0.307     0.652
     Fe    36      Dxx-yy               0.928     0.368     0.559
     Fe    36      Dxy                  0.883     0.530     0.354
     Fe    36      S                    0.407     0.386     0.021
     Fe    36      Px                   0.079     0.088    -0.009
     Fe    36      Py                   0.119     0.178    -0.059
     Fe    36      Pz                   0.059     0.064    -0.005
     Fe    37      Dzz                  0.902     0.454     0.448
     Fe    37      Dzy                  0.908     0.489     0.419
     Fe    37      Dzx                  0.947     0.303     0.644
     Fe    37      Dxx-yy               0.932     0.354     0.578
     Fe    37      Dxy                  0.875     0.497     0.378
     Fe    37      S                    0.333     0.361    -0.028
     Fe    37      Px                   0.068     0.107    -0.039
     Fe    37      Py                   0.075     0.135    -0.060
     Fe    37      Pz                   0.075     0.138    -0.063
     Fe    38      Dzz                  0.950     0.352     0.599
     Fe    38      Dzy                  0.943     0.433     0.510
     Fe    38      Dzx                  0.959     0.309     0.649
     Fe    38      Dxx-yy               0.927     0.371     0.556
     Fe    38      Dxy                  0.884     0.528     0.356
     Fe    38      S                    0.407     0.385     0.022
     Fe    38      Px                   0.078     0.086    -0.009
     Fe    38      Py                   0.119     0.178    -0.060
     Fe    38      Pz                   0.057     0.062    -0.005
     Fe    39      Dzz                  0.899     0.460     0.438
     Fe    39      Dzy                  0.899     0.505     0.394
     Fe    39      Dzx                  0.949     0.297     0.652
     Fe    39      Dxx-yy               0.933     0.355     0.578
     Fe    39      Dxy                  0.872     0.500     0.372
     Fe    39      S                    0.335     0.362    -0.027
     Fe    39      Px                   0.072     0.113    -0.041
     Fe    39      Py                   0.076     0.135    -0.059
     Fe    39      Pz                   0.067     0.128    -0.062
     Fe    40      Dzz                  0.900     0.458     0.442
     Fe    40      Dzy                  0.908     0.490     0.418
     Fe    40      Dzx                  0.949     0.299     0.651
     Fe    40      Dxx-yy               0.931     0.355     0.576
     Fe    40      Dxy                  0.874     0.498     0.376
     Fe    40      S                    0.332     0.360    -0.028
     Fe    40      Px                   0.069     0.110    -0.041
     Fe    40      Py                   0.075     0.135    -0.060
     Fe    40      Pz                   0.076     0.140    -0.063
     Fe    41      Dzz                  0.951     0.348     0.603
     Fe    41      Dzy                  0.942     0.440     0.503
     Fe    41      Dzx                  0.958     0.311     0.648
     Fe    41      Dxx-yy               0.927     0.367     0.561
     Fe    41      Dxy                  0.880     0.531     0.349
     Fe    41      S                    0.406     0.387     0.020
     Fe    41      Px                   0.078     0.088    -0.010
     Fe    41      Py                   0.118     0.177    -0.059
     Fe    41      Pz                   0.059     0.064    -0.005
     Fe    42      Dzz                  0.949     0.351     0.598
     Fe    42      Dzy                  0.942     0.440     0.502
     Fe    42      Dzx                  0.959     0.309     0.650
     Fe    42      Dxx-yy               0.926     0.369     0.557
     Fe    42      Dxy                  0.882     0.529     0.353
     Fe    42      S                    0.407     0.387     0.020
     Fe    42      Px                   0.079     0.088    -0.009
     Fe    42      Py                   0.119     0.179    -0.060
     Fe    42      Pz                   0.056     0.062    -0.006
     Fe    43      Dzz                  0.900     0.455     0.444
     Fe    43      Dzy                  0.907     0.494     0.412
     Fe    43      Dzx                  0.950     0.299     0.651
     Fe    43      Dxx-yy               0.931     0.355     0.576
     Fe    43      Dxy                  0.873     0.500     0.373
     Fe    43      S                    0.333     0.362    -0.029
     Fe    43      Px                   0.069     0.110    -0.041
     Fe    43      Py                   0.077     0.138    -0.061
     Fe    43      Pz                   0.076     0.139    -0.063
     Fe    44      Dzz                  0.901     0.457     0.444
     Fe    44      Dzy                  0.906     0.490     0.415
     Fe    44      Dzx                  0.950     0.298     0.652
     Fe    44      Dxx-yy               0.932     0.353     0.579
     Fe    44      Dxy                  0.872     0.502     0.370
     Fe    44      S                    0.332     0.360    -0.028
     Fe    44      Px                   0.068     0.108    -0.040
     Fe    44      Py                   0.075     0.134    -0.059
     Fe    44      Pz                   0.078     0.141    -0.064
     Fe    45      Dzz                  0.949     0.351     0.598
     Fe    45      Dzy                  0.943     0.435     0.508
     Fe    45      Dzx                  0.959     0.312     0.647
     Fe    45      Dxx-yy               0.927     0.371     0.556
     Fe    45      Dxy                  0.883     0.526     0.357
     Fe    45      S                    0.406     0.387     0.019
     Fe    45      Px                   0.079     0.090    -0.010
     Fe    45      Py                   0.119     0.178    -0.059
     Fe    45      Pz                   0.058     0.064    -0.006
     Fe    46      Dzz                  0.950     0.348     0.602
     Fe    46      Dzy                  0.942     0.440     0.501
     Fe    46      Dzx                  0.959     0.307     0.652
     Fe    46      Dxx-yy               0.928     0.367     0.561
     Fe    46      Dxy                  0.882     0.532     0.350
     Fe    46      S                    0.408     0.387     0.021
     Fe    46      Px                   0.079     0.088    -0.009
     Fe    46      Py                   0.119     0.178    -0.059
     Fe    46      Pz                   0.057     0.063    -0.005
     Fe    47      Dzz                  0.899     0.461     0.438
     Fe    47      Dzy                  0.902     0.497     0.405
     Fe    47      Dzx                  0.949     0.297     0.652
     Fe    47      Dxx-yy               0.931     0.358     0.574
     Fe    47      Dxy                  0.875     0.495     0.380
     Fe    47      S                    0.333     0.362    -0.028
     Fe    47      Px                   0.071     0.112    -0.041
     Fe    47      Py                   0.076     0.136    -0.059
     Fe    47      Pz                   0.070     0.133    -0.063
     Fe    48      Dzz                  0.951     0.349     0.602
     Fe    48      Dzy                  0.943     0.437     0.506
     Fe    48      Dzx                  0.958     0.312     0.647
     Fe    48      Dxx-yy               0.927     0.370     0.557
     Fe    48      Dxy                  0.882     0.528     0.354
     Fe    48      S                    0.407     0.387     0.019
     Fe    48      Px                   0.078     0.088    -0.010
     Fe    48      Py                   0.118     0.178    -0.060
     Fe    48      Pz                   0.059     0.065    -0.006
  ---------------------------------------------------------------
                           Total:     255.757   142.242   113.516
  ---------------------------------------------------------------
 
     Atomic Populations (Mulliken)
     -----------------------------
Species          Ion Spin      s       p       d       f      Total   Charge(e)   Spin(hbar/2)
==============================================================================================
  H               1   up:     0.582   0.000   0.000   0.000   0.582    -0.226       -0.062
                  1   dn:     0.644   0.000   0.000   0.000   0.644
  H               2   up:     0.586   0.000   0.000   0.000   0.586    -0.244       -0.071
                  2   dn:     0.658   0.000   0.000   0.000   0.658
  H               3   up:     0.630   0.000   0.000   0.000   0.630    -0.315       -0.056
                  3   dn:     0.686   0.000   0.000   0.000   0.686
  H               4   up:     0.559   0.000   0.000   0.000   0.559    -0.204       -0.086
                  4   dn:     0.645   0.000   0.000   0.000   0.645
  H               5   up:     0.604   0.000   0.000   0.000   0.604    -0.274       -0.066
                  5   dn:     0.670   0.000   0.000   0.000   0.670
  H               6   up:     0.602   0.000   0.000   0.000   0.602    -0.271       -0.068
                  6   dn:     0.670   0.000   0.000   0.000   0.670
  H               7   up:     0.615   0.000   0.000   0.000   0.615    -0.286       -0.056
                  7   dn:     0.671   0.000   0.000   0.000   0.671
  H               8   up:     0.604   0.000   0.000   0.000   0.604    -0.276       -0.068
                  8   dn:     0.672   0.000   0.000   0.000   0.672
  H               9   up:     0.601   0.000   0.000   0.000   0.601    -0.268       -0.066
                  9   dn:     0.667   0.000   0.000   0.000   0.667
  H              10   up:     0.602   0.000   0.000   0.000   0.602    -0.269       -0.064
                 10   dn:     0.666   0.000   0.000   0.000   0.666
  H              11   up:     0.602   0.000   0.000   0.000   0.602    -0.274       -0.069
                 11   dn:     0.671   0.000   0.000   0.000   0.671
  H              12   up:     0.602   0.000   0.000   0.000   0.602    -0.273       -0.069
                 12   dn:     0.671   0.000   0.000   0.000   0.671
  H              13   up:     0.594   0.000   0.000   0.000   0.594    -0.255       -0.067
                 13   dn:     0.661   0.000   0.000   0.000   0.661
  H              14   up:     0.591   0.000   0.000   0.000   0.591    -0.258       -0.077
                 14   dn:     0.667   0.000   0.000   0.000   0.667
  Fe              1   up:     0.294   0.146   4.506   0.000   4.945     0.414        2.304
                  1   dn:     0.255   0.153   2.233   0.000   2.641
  Fe              2   up:     0.333   0.236   4.574   0.000   5.143     0.035        2.321
                  2   dn:     0.353   0.394   2.075   0.000   2.822
  Fe              3   up:     0.337   0.213   4.521   0.000   5.072     0.196        2.339
                  3   dn:     0.310   0.249   2.173   0.000   2.732
  Fe              4   up:     0.331   0.198   4.537   0.000   5.066     0.245        2.377
                  4   dn:     0.305   0.236   2.148   0.000   2.689
  Fe              5   up:     0.331   0.244   4.601   0.000   5.176     0.034        2.386
                  5   dn:     0.351   0.395   2.043   0.000   2.790
  Fe              6   up:     0.338   0.231   4.562   0.000   5.130     0.029        2.290
                  6   dn:     0.362   0.391   2.088   0.000   2.841
  Fe              7   up:     0.331   0.204   4.574   0.000   5.109     0.276        2.495
                  7   dn:     0.299   0.222   2.093   0.000   2.614
  Fe              8   up:     0.328   0.215   4.542   0.000   5.085     0.220        2.390
                  8   dn:     0.303   0.249   2.143   0.000   2.695
  Fe              9   up:     0.337   0.228   4.560   0.000   5.124     0.044        2.292
                  9   dn:     0.359   0.381   2.092   0.000   2.832
  Fe             10   up:     0.336   0.230   4.571   0.000   5.137     0.040        2.315
                 10   dn:     0.359   0.387   2.077   0.000   2.823
  Fe             11   up:     0.333   0.231   4.542   0.000   5.107     0.182        2.395
                 11   dn:     0.304   0.268   2.139   0.000   2.712
  Fe             12   up:     0.324   0.237   4.583   0.000   5.143     0.054        2.340
                 12   dn:     0.346   0.383   2.075   0.000   2.803
  Fe             13   up:     0.324   0.192   4.550   0.000   5.066     0.282        2.414
                 13   dn:     0.297   0.216   2.139   0.000   2.652
  Fe             14   up:     0.325   0.187   4.526   0.000   5.038     0.136        2.211
                 14   dn:     0.350   0.314   2.163   0.000   2.826
  Fe             15   up:     0.324   0.196   4.489   0.000   5.009     0.227        2.246
                 15   dn:     0.305   0.235   2.224   0.000   2.764
  Fe             16   up:     0.328   0.196   4.520   0.000   5.044     0.252        2.340
                 16   dn:     0.302   0.226   2.176   0.000   2.704
  Fe             17   up:     0.339   0.224   4.557   0.000   5.120     0.045        2.284
                 17   dn:     0.362   0.378   2.095   0.000   2.835
  Fe             18   up:     0.340   0.228   4.577   0.000   5.145     0.037        2.327
                 18   dn:     0.360   0.389   2.068   0.000   2.818
  Fe             19   up:     0.330   0.200   4.511   0.000   5.041     0.237        2.320
                 19   dn:     0.305   0.227   2.190   0.000   2.722
  Fe             20   up:     0.309   0.198   4.450   0.000   4.956     0.248        2.160
                 20   dn:     0.287   0.224   2.285   0.000   2.796
  Fe             21   up:     0.339   0.232   4.562   0.000   5.133     0.030        2.297
                 21   dn:     0.360   0.390   2.086   0.000   2.837
  Fe             22   up:     0.334   0.242   4.581   0.000   5.156     0.025        2.338
                 22   dn:     0.355   0.403   2.060   0.000   2.818
  Fe             23   up:     0.304   0.195   4.513   0.000   5.011     0.284        2.307
                 23   dn:     0.282   0.205   2.218   0.000   2.704
  Fe             24   up:     0.336   0.228   4.573   0.000   5.138     0.050        2.325
                 24   dn:     0.357   0.384   2.072   0.000   2.813
  Fe             25   up:     0.329   0.227   4.573   0.000   5.129     0.034        2.292
                 25   dn:     0.357   0.394   2.086   0.000   2.837
  Fe             26   up:     0.407   0.255   4.663   0.000   5.325    -0.035        2.615
                 26   dn:     0.387   0.332   1.992   0.000   2.710
  Fe             27   up:     0.331   0.226   4.567   0.000   5.124     0.036        2.283
                 27   dn:     0.358   0.389   2.093   0.000   2.841
  Fe             28   up:     0.331   0.227   4.570   0.000   5.129     0.030        2.287
                 28   dn:     0.359   0.393   2.089   0.000   2.841
  Fe             29   up:     0.407   0.257   4.665   0.000   5.328    -0.032        2.625
                 29   dn:     0.386   0.329   1.989   0.000   2.704
  Fe             30   up:     0.406   0.258   4.665   0.000   5.329    -0.034        2.623
                 30   dn:     0.386   0.332   1.988   0.000   2.705
  Fe             31   up:     0.332   0.220   4.557   0.000   5.108     0.040        2.256
                 31   dn:     0.360   0.385   2.107   0.000   2.852
  Fe             32   up:     0.331   0.223   4.562   0.000   5.116     0.040        2.271
                 32   dn:     0.359   0.386   2.100   0.000   2.845
  Fe             33   up:     0.405   0.258   4.668   0.000   5.331    -0.031        2.630
                 33   dn:     0.385   0.330   1.986   0.000   2.701
  Fe             34   up:     0.406   0.257   4.663   0.000   5.326    -0.032        2.621
                 34   dn:     0.385   0.330   1.990   0.000   2.706
  Fe             35   up:     0.331   0.223   4.565   0.000   5.119     0.039        2.278
                 35   dn:     0.359   0.386   2.096   0.000   2.841
  Fe             36   up:     0.407   0.257   4.665   0.000   5.329    -0.033        2.625
                 36   dn:     0.386   0.330   1.988   0.000   2.704
  Fe             37   up:     0.333   0.218   4.564   0.000   5.115     0.047        2.277
                 37   dn:     0.361   0.380   2.097   0.000   2.838
  Fe             38   up:     0.407   0.254   4.662   0.000   5.323    -0.028        2.618
                 38   dn:     0.385   0.327   1.993   0.000   2.705
  Fe             39   up:     0.335   0.215   4.551   0.000   5.100     0.045        2.245
                 39   dn:     0.362   0.376   2.117   0.000   2.855
  Fe             40   up:     0.332   0.220   4.562   0.000   5.114     0.040        2.269
                 40   dn:     0.360   0.386   2.100   0.000   2.846
  Fe             41   up:     0.406   0.255   4.659   0.000   5.320    -0.032        2.608
                 41   dn:     0.387   0.329   1.996   0.000   2.712
  Fe             42   up:     0.407   0.254   4.657   0.000   5.319    -0.035        2.604
                 42   dn:     0.387   0.330   1.999   0.000   2.716
  Fe             43   up:     0.333   0.222   4.560   0.000   5.115     0.034        2.263
                 43   dn:     0.362   0.387   2.103   0.000   2.851
  Fe             44   up:     0.332   0.221   4.561   0.000   5.113     0.043        2.269
                 44   dn:     0.360   0.384   2.101   0.000   2.844
  Fe             45   up:     0.406   0.256   4.660   0.000   5.322    -0.035        2.609
                 45   dn:     0.387   0.331   1.995   0.000   2.713
  Fe             46   up:     0.408   0.255   4.661   0.000   5.324    -0.035        2.614
                 46   dn:     0.387   0.329   1.995   0.000   2.710
  Fe             47   up:     0.333   0.218   4.557   0.000   5.108     0.042        2.257
                 47   dn:     0.362   0.381   2.108   0.000   2.851
  Fe             48   up:     0.407   0.256   4.660   0.000   5.322    -0.036        2.609
                 48   dn:     0.387   0.331   1.995   0.000   2.713
==============================================================================================
 
                 Bond                   Population        Spin       Length (A)
================================================================================
              H 3  -- Fe 1                   0.07         0.02          1.54990
              H 4  -- Fe 20                  0.41         0.01          1.65557
              H 2  -- Fe 15                  0.36         0.02          1.66501
              H 14 -- Fe 8                   0.36         0.01          1.66859
              H 1  -- H 4                    0.05         0.02          1.68106
              H 4  -- Fe 11                  0.38         0.01          1.68384
              H 3  -- Fe 14                  0.12         0.02          1.68415
              H 7  -- Fe 1                   0.32         0.01          1.70129
              H 1  -- Fe 23                  0.31         0.00          1.70417
              H 6  -- Fe 3                   0.34         0.01          1.70572
[...]
             Fe 36 -- Fe 46                  0.36        -0.01          2.45554
             Fe 28 -- Fe 39                  0.24        -0.01          2.45574
             Fe 28 -- Fe 43                  0.24        -0.01          2.45576
             Fe 9  -- Fe 22                  0.23        -0.01          2.45580
             Fe 35 -- Fe 44                  0.24        -0.02          2.45584
             Fe 39 -- Fe 40                  0.24        -0.02          2.45653
             Fe 7  -- Fe 10                  0.11        -0.01          2.45690
             Fe 11 -- Fe 20                  0.22        -0.05          2.45690
             Fe 25 -- Fe 47                  0.24        -0.02          2.45730
              H 11 -- H 12                   0.01         0.00          2.45751
             Fe 18 -- Fe 43                  0.20        -0.00          2.45794
             Fe 25 -- Fe 39                  0.25        -0.02          2.45814
             Fe 8  -- Fe 23                  0.12        -0.01          2.45861
             Fe 18 -- Fe 21                  0.25        -0.01          2.45881
             Fe 12 -- Fe 22                  0.26        -0.01          2.45916
             Fe 27 -- Fe 40                  0.24        -0.02          2.45982
             Fe 8  -- Fe 9                   0.13        -0.01          2.46066
             Fe 17 -- Fe 40                  0.21        -0.00          2.46075
             Fe 22 -- Fe 24                  0.22        -0.00          2.46078
             Fe 7  -- Fe 16                  0.13        -0.02          2.46113
             Fe 37 -- Fe 47                  0.23        -0.01          2.46177
             Fe 5  -- Fe 6                   0.25        -0.01          2.46177
             Fe 40 -- Fe 41                  0.03         0.03          2.46188
             Fe 13 -- Fe 15                  0.15        -0.03          2.46231
             Fe 25 -- Fe 36                  0.02         0.03          2.46261
             Fe 37 -- Fe 39                  0.23        -0.01          2.46305
             Fe 42 -- Fe 43                  0.02         0.03          2.46320
             Fe 6  -- Fe 7                   0.13        -0.01          2.46327
             Fe 5  -- Fe 18                  0.26        -0.01          2.46374
             Fe 44 -- Fe 45                  0.02         0.03          2.46386
             Fe 3  -- Fe 6                   0.13        -0.02          2.46489
             Fe 9  -- Fe 32                  0.20         0.00          2.46531
             Fe 7  -- Fe 20                  0.07        -0.01          2.46567
             Fe 6  -- Fe 31                  0.20        -0.00          2.46634
             Fe 4  -- Fe 9                   0.13        -0.01          2.46723
             Fe 17 -- Fe 18                  0.25        -0.01          2.46750
             Fe 21 -- Fe 44                  0.22        -0.01          2.46782
             Fe 4  -- Fe 5                   0.14        -0.02          2.46783
             Fe 2  -- Fe 3                   0.12        -0.01          2.46804
             Fe 30 -- Fe 31                  0.03         0.03          2.46836
             Fe 32 -- Fe 33                  0.03         0.02          2.46875
             Fe 26 -- Fe 27                  0.02         0.03          2.46879
             Fe 34 -- Fe 35                  0.03         0.03          2.47127
             Fe 22 -- Fe 47                  0.21        -0.00          2.47212
             Fe 7  -- Fe 8                   0.14        -0.02          2.47297
             Fe 19 -- Fe 20                  0.13        -0.03          2.47533
             Fe 20 -- Fe 23                 -0.04        -0.01          2.47533
             Fe 8  -- Fe 11                  0.12        -0.02          2.47631
             Fe 28 -- Fe 29                  0.03         0.03          2.47697
              H 2  -- H 3                   -0.01         0.00          2.47726
             Fe 10 -- Fe 35                  0.21        -0.00          2.47749
             Fe 2  -- Fe 11                  0.09        -0.00          2.47796
             Fe 18 -- Fe 39                  0.22        -0.01          2.47889
             Fe 13 -- Fe 24                  0.13        -0.01          2.47963
             Fe 22 -- Fe 43                  0.21        -0.00          2.48021
             Fe 9  -- Fe 28                  0.21        -0.00          2.48028
             Fe 12 -- Fe 25                  0.21        -0.01          2.48032
             Fe 12 -- Fe 32                  0.21         0.00          2.48035
             Fe 24 -- Fe 37                  0.20         0.00          2.48094
              H 10 -- H 13                   0.01         0.00          2.48170
             Fe 17 -- Fe 37                  0.20         0.00          2.48308
             Fe 11 -- Fe 13                  0.27        -0.02          2.48334
             Fe 24 -- Fe 44                  0.22        -0.01          2.48421
             Fe 2  -- Fe 35                  0.21        -0.00          2.48551
             Fe 5  -- Fe 25                  0.21        -0.01          2.48745
             Fe 2  -- Fe 27                  0.21        -0.00          2.48772
             Fe 21 -- Fe 40                  0.22        -0.01          2.48843
             Fe 10 -- Fe 31                  0.20        -0.00          2.48853
             Fe 5  -- Fe 28                  0.21        -0.00          2.48870
             Fe 6  -- Fe 27                  0.22        -0.00          2.49065
             Fe 20 -- Fe 24                  0.16        -0.02          2.49158
              H 10 -- H 11                   0.01         0.00          2.49202
             Fe 10 -- Fe 11                  0.15        -0.02          2.49663
             Fe 20 -- Fe 21                  0.13        -0.01          2.49806
             Fe 22 -- Fe 23                  0.18        -0.02          2.51633
             Fe 5  -- Fe 14                  0.19        -0.00          2.51749
             Fe 1  -- Fe 23                  0.04        -0.01          2.51819
             Fe 1  -- Fe 15                  0.05        -0.01          2.52140
             Fe 14 -- Fe 15                  0.09        -0.01          2.53515
             Fe 14 -- Fe 23                  0.02        -0.01          2.53601
              H 13 -- Fe 8                   0.03        -0.00          2.53909
             Fe 12 -- Fe 14                  0.13        -0.00          2.54854
              H 3  -- H 8                   -0.02         0.00          2.55278
              H 5  -- H 7                    0.00         0.00          2.57550
              H 7  -- H 8                    0.00         0.00          2.58668
              H 2  -- H 5                    0.01         0.00          2.59618
              H 2  -- H 9                    0.01         0.00          2.59900
             Fe 1  -- Fe 5                   0.09        -0.01          2.60193
              H 4  -- H 7                    0.01         0.00          2.60265
              H 10 -- H 14                  -0.00         0.00          2.62044
              H 4  -- Fe 13                  0.01        -0.00          2.63883
              H 7  -- Fe 13                  0.01         0.00          2.64579
              H 1  -- Fe 11                 -0.06         0.00          2.64707
             Fe 1  -- Fe 12                  0.05        -0.01          2.65643
              H 10 -- Fe 19                  0.00        -0.00          2.65749
              H 4  -- Fe 7                   0.01        -0.00          2.65756
              H 4  -- H 13                   0.00         0.00          2.68033
              H 9  -- Fe 4                  -0.02         0.00          2.69988
              H 12 -- Fe 7                   0.00         0.00          2.70266
              H 5  -- Fe 11                  0.00        -0.00          2.71833
              H 11 -- Fe 16                 -0.01        -0.00          2.71929
             Fe 14 -- Fe 37                  0.07         0.00          2.74201
              H 6  -- Fe 15                 -0.03         0.00          2.75234
              H 8  -- Fe 3                  -0.01        -0.00          2.75237
              H 2  -- Fe 1                  -0.01        -0.00          2.75342
              H 8  -- H 12                   0.01         0.00          2.75606
             Fe 15 -- Fe 19                  0.09        -0.02          2.75895
              H 6  -- H 10                   0.00         0.00          2.77273
             Fe 5  -- Fe 15                  0.02         0.01          2.77424
             Fe 9  -- Fe 19                  0.01         0.02          2.77936
             Fe 13 -- Fe 16                  0.09        -0.02          2.78541
              H 9  -- H 13                   0.00        -0.00          2.79247
             Fe 4  -- Fe 6                   0.01         0.02          2.79448
             Fe 39 -- Fe 41                 -0.07         0.02          2.80031
             Fe 47 -- Fe 48                 -0.06         0.02          2.80867
              H 7  -- H 11                   0.00         0.00          2.80883
             Fe 3  -- Fe 17                  0.01         0.02          2.81124
             Fe 13 -- Fe 14                  0.04         0.01          2.81169
             Fe 1  -- Fe 4                   0.09        -0.02          2.81216
             Fe 26 -- Fe 37                 -0.07         0.02          2.81469
             Fe 15 -- Fe 23                  0.07        -0.02          2.81589
             Fe 18 -- Fe 28                  0.05         0.01          2.81676
             Fe 6  -- Fe 10                  0.15        -0.01          2.81802
             Fe 8  -- Fe 10                  0.03         0.01          2.81806
             Fe 40 -- Fe 44                  0.08         0.00          2.81825
             Fe 43 -- Fe 45                 -0.07         0.02          2.81870
              H 14 -- Fe 20                 -0.08         0.00          2.81896
             Fe 30 -- Fe 40                 -0.07         0.02          2.81948
             Fe 14 -- Fe 18                  0.18        -0.02          2.82046
             Fe 16 -- Fe 18                 -0.00         0.01          2.82161
             Fe 5  -- Fe 12                  0.12        -0.01          2.82162
             Fe 9  -- Fe 12                  0.16        -0.01          2.82173
             Fe 43 -- Fe 47                  0.08         0.00          2.82216
             Fe 7  -- Fe 21                  0.02         0.01          2.82223
             Fe 2  -- Fe 10                  0.16        -0.01          2.82247
             Fe 17 -- Fe 21                  0.14        -0.01          2.82277
             Fe 12 -- Fe 35                  0.04         0.01          2.82459
             Fe 34 -- Fe 44                 -0.07         0.02          2.82508
             Fe 3  -- Fe 7                   0.10        -0.02          2.82542
             Fe 29 -- Fe 36                  0.36        -0.04          2.82554
             Fe 27 -- Fe 35                  0.08         0.00          2.82668
             Fe 21 -- Fe 24                  0.16        -0.01          2.82675
             Fe 25 -- Fe 38                 -0.07         0.02          2.82864
             Fe 29 -- Fe 39                 -0.07         0.02          2.82870
             Fe 28 -- Fe 32                  0.07         0.00          2.82891
             Fe 7  -- Fe 11                  0.04        -0.01          2.82894
             Fe 19 -- Fe 21                 -0.02         0.02          2.82935
             Fe 9  -- Fe 31                  0.04         0.01          2.82991
             Fe 12 -- Fe 23                 -0.09         0.02          2.83054
             Fe 26 -- Fe 30                  0.36        -0.04          2.83115
             Fe 26 -- Fe 34                  0.36        -0.04          2.83115
             Fe 39 -- Fe 43                  0.08         0.01          2.83129
             Fe 32 -- Fe 46                 -0.06         0.02          2.83149
             Fe 38 -- Fe 42                  0.37        -0.04          2.83157
             Fe 41 -- Fe 48                  0.36        -0.04          2.83159
             Fe 38 -- Fe 46                  0.37        -0.04          2.83164
             Fe 5  -- Fe 27                  0.05         0.01          2.83234
             Fe 25 -- Fe 32                  0.08         0.00          2.83276
              H 11 -- H 14                   0.00         0.00          2.83296
             Fe 28 -- Fe 42                 -0.07         0.02          2.83338
             Fe 41 -- Fe 45                  0.36        -0.04          2.83357
             Fe 45 -- Fe 48                  0.36        -0.04          2.83361
             Fe 18 -- Fe 22                  0.13        -0.01          2.83378
             Fe 25 -- Fe 26                 -0.07         0.02          2.83418
             Fe 31 -- Fe 35                  0.08         0.00          2.83515
             Fe 11 -- Fe 24                 -0.04         0.02          2.83555
             Fe 42 -- Fe 46                  0.36        -0.04          2.83556
             Fe 31 -- Fe 33                 -0.07         0.02          2.83563
             Fe 32 -- Fe 34                 -0.06         0.02          2.83586
             Fe 17 -- Fe 27                  0.04         0.01          2.83623
             Fe 30 -- Fe 34                  0.36        -0.04          2.83646
             Fe 29 -- Fe 33                  0.36        -0.04          2.83660
             Fe 33 -- Fe 36                  0.36        -0.04          2.83662
             Fe 28 -- Fe 30                 -0.06         0.02          2.83687
             Fe 27 -- Fe 31                  0.08         0.00          2.83694
             Fe 25 -- Fe 28                  0.08         0.00          2.83713
             Fe 4  -- Fe 8                   0.07        -0.02          2.83722
             Fe 22 -- Fe 32                  0.04         0.01          2.83757
             Fe 37 -- Fe 44                  0.08         0.00          2.83798
             Fe 16 -- Fe 20                  0.06        -0.02          2.83800
             Fe 33 -- Fe 43                 -0.07         0.02          2.83801
             Fe 36 -- Fe 47                 -0.07         0.02          2.83814
             Fe 27 -- Fe 29                 -0.07         0.02          2.83992
             Fe 35 -- Fe 36                 -0.07         0.02          2.84022
             Fe 10 -- Fe 44                  0.04         0.01          2.84239
             Fe 14 -- Fe 25                  0.05         0.01          2.84240
             Fe 37 -- Fe 40                  0.08         0.00          2.84257
             Fe 31 -- Fe 45                 -0.07         0.02          2.84380
              H 5  -- H 12                   0.00        -0.00          2.84384
             Fe 40 -- Fe 42                 -0.07         0.02          2.84408
             Fe 35 -- Fe 48                 -0.07         0.02          2.84459
             Fe 27 -- Fe 41                 -0.07         0.02          2.84494
             Fe 3  -- Fe 11                  0.08        -0.02          2.84502
             Fe 39 -- Fe 47                  0.06         0.00          2.84542
             Fe 20 -- Fe 22                  0.01         0.01          2.84675
             Fe 2  -- Fe 13                 -0.05         0.02          2.84789
             Fe 17 -- Fe 24                  0.12        -0.01          2.84953
             Fe 14 -- Fe 22                  0.17        -0.01          2.84972
             Fe 6  -- Fe 40                  0.04         0.01          2.85081
             Fe 37 -- Fe 38                 -0.08         0.02          2.85086
             Fe 44 -- Fe 46                 -0.07         0.02          2.85161
             Fe 6  -- Fe 16                 -0.03         0.02          2.85190
             Fe 8  -- Fe 22                 -0.04         0.02          2.85331
             Fe 21 -- Fe 43                  0.03         0.01          2.85346
             Fe 24 -- Fe 35                  0.04         0.01          2.85378
             Fe 18 -- Fe 40                  0.04         0.01          2.85386
             Fe 22 -- Fe 44                  0.03         0.01          2.85539
             Fe 5  -- Fe 9                   0.15        -0.01          2.85546
             Fe 2  -- Fe 37                  0.04         0.01          2.85671
             Fe 2  -- Fe 6                   0.15        -0.01          2.85836
             Fe 24 -- Fe 47                  0.03         0.01          2.86560
             Fe 17 -- Fe 39                  0.03         0.01          2.86569
             Fe 6  -- Fe 28                  0.04         0.01          2.86642
             Fe 1  -- Fe 8                   0.08        -0.02          2.86834
             Fe 21 -- Fe 31                  0.03         0.01          2.86916
             Fe 9  -- Fe 43                  0.03         0.01          2.87211
             Fe 3  -- Fe 5                  -0.04         0.03          2.87358
              H 7  -- H 14                   0.00         0.00          2.87416
             Fe 7  -- Fe 9                  -0.04         0.02          2.87607
             Fe 13 -- Fe 20                 -0.02        -0.02          2.87688
             Fe 10 -- Fe 32                  0.03         0.01          2.87766
             Fe 1  -- Fe 2                   0.03         0.00          2.88532
             Fe 12 -- Fe 47                  0.02         0.01          2.88534
             Fe 23 -- Fe 24                  0.02         0.02          2.88678
             Fe 15 -- Fe 17                 -0.05         0.02          2.88719
             Fe 2  -- Fe 25                  0.03         0.01          2.88949
              H 13 -- Fe 22                 -0.14         0.02          2.88992
             Fe 4  -- Fe 18                 -0.07         0.03          2.89372
             Fe 10 -- Fe 20                 -0.03         0.02          2.89718
             Fe 5  -- Fe 39                  0.01         0.01          2.89849
              H 5  -- H 8                    0.00         0.00          2.90183
             Fe 11 -- Fe 12                 -0.02         0.02          2.90288
              H 1  -- Fe 24                 -0.12         0.01          2.92067
             Fe 19 -- Fe 23                  0.05        -0.02          2.92528
              H 10 -- Fe 21                 -0.16         0.02          2.93590
              H 1  -- H 5                    0.00         0.00          2.93870
              H 3  -- Fe 8                  -0.03         0.00          2.95261
              H 12 -- Fe 9                  -0.16         0.02          2.95454
              H 9  -- Fe 18                 -0.17         0.02          2.97314
              H 11 -- Fe 6                  -0.16         0.02          2.97891
              H 6  -- Fe 17                 -0.16         0.02          2.99466
================================================================================
 

Writing analysis data to neb-calc_1-10.castep_bin

Writing model to neb-calc_1-10.check
 
 A BibTeX formatted list of references used in this run has been written to 
 neb-calc_1-10.bib
 
Initialisation time =     10.26 s
Calculation time    =  19611.17 s
Finalisation time   =      6.58 s
Total time          =  19628.02 s
Peak Memory Use     = 2061256 kB
  
Overall parallel efficiency rating: Excellent (90%)                             
  
Data was distributed by:-
G-vector (16-way); efficiency rating: Excellent (90%)                           
k-point (8-way); efficiency rating: Excellent (99%)                             
