 +-------------------------------------------------+
 |                                                 |
 |      CCC   AA    SSS  TTTTT  EEEEE  PPPP        |
 |     C     A  A  S       T    E      P   P       |
 |     C     AAAA   SS     T    EEE    PPPP        |
 |     C     A  A     S    T    E      P           |
 |      CCC  A  A  SSS     T    EEEEE  P           |
 |                                                 |
 +-------------------------------------------------+
 |                                                 |
 | Welcome to Academic Release CASTEP version 21.11|          
 | Ab Initio Total Energy Program                  |
 |                                                 |
 | Authors:                                        |
 | M. Segall, M. Probert, C. Pickard, P. Hasnip,   |
 | S. Clark, K. Refson, J. R. Yates, M. Payne      |
 |                                                 |
 | Contributors:                                   |
 | P. Lindan, P. Haynes, J. White, V. Milman,      |
 | N. Govind, M. Gibson, P. Tulip, V. Cocula,      |
 | B. Montanari, D. Quigley, M. Glover,            |
 | L. Bernasconi, A. Perlov, M. Plummer,           |
 | E. McNellis, J. Meyer, J. Gale, D. Jochym       |
 | J. Aarons, B. Walker, R. Gillen, D. Jones       |
 | T. Green, I. J. Bush, C. J. Armstrong,          |
 | E. J. Higgins, E. L. Brown, M. S. McFly,        |
 | J. Wilkins, B-C. Shih, P. J. P. Byrne,          |
 | R. J. Maurer, J. C. Womack, J. Dziedzic,        |
 | A. Bartok-Partay, L. LeBlanc                    |
 |                                                 |
 | Copyright (c) 2000 - 2021                       |
 |                                                 |
 |     Distributed under license from Cambridge    |
 |     Enterprise for academic use only.           |
 |                                                 |
 | Please cite                                     |
 |                                                 |
 |     "First principles methods using CASTEP"     |
 |                                                 |
 |         Zeitschrift fuer Kristallographie       |
 |           220(5-6) pp. 567-570 (2005)           |
 |                                                 |
 | S. J. Clark, M. D. Segall, C. J. Pickard,       |
 | P. J. Hasnip, M. J. Probert, K. Refson,         |
 | M. C. Payne                                     |
 |                                                 |
 |       in all publications arising from          |
 |              your use of CASTEP                 |
 |                                                 |
 +-------------------------------------------------+
 |                                                 |
 |              http://www.castep.org              |
 |                                                 |
 +-------------------------------------------------+
 
 
 
 Compiled for linux_x86_64_cray-XT on Tue, 01 Mar 2022 09:19:15 +0000
 from code version 7d4405a8a+  HEAD  Sat Nov 27 13:38:33 2021 +0000
 Compiler: Cray Fortran 12.0.3; Optimisation: fast
 MATHLIBS: LibSci (LAPACK version 3.6.1)
 FFT Lib : fftw3 version commercial-fftw-3.3.8-sse2-avx-avx2-avx2_128
 Fundamental constants values: CODATA 2014
 
 Run started: Mon, 27 Jun 2022 07:22:41 -0100
 Warning in parameters_read: presetting of magnetic moments on atoms cannot be guaranteed when metals_method /= density mixing
 
 Atomic calculation performed for H: 1s1
 
 Converged in 41 iterations to an ae energy of -12.488 eV
 
   ============================================================                
   | Pseudopotential Report - Date of generation 27-06-2022   |                
   ------------------------------------------------------------                
   | Element: H Ionic charge:  1.00 Level of theory: PBE      |                
   | Atomic Solver: Koelling-Harmon                           |                
   |                                                          |                
   |               Reference Electronic Structure             |                
   |         Orbital         Occupation         Energy        |                
   |            1s              1.000           -0.239        |                
   |                                                          |                
   |                 Pseudopotential Definition               |                
   |        Beta     l      e      Rc     scheme   norm       |                
   |          1      0   -0.239   0.599     qc      0         |                
   |          2      0    0.250   0.599     qc      0         |                
   |         loc     1    0.000   0.599     pn      0         |                
   |                                                          |                
   | Augmentation charge Rinner = 0.421                       |                
   | No partial core correction                               |                
   ------------------------------------------------------------                
   | "1|0.6|13|15|17|10(qc=8)"                                |                
   ------------------------------------------------------------                
   |      Author: Chris J. Pickard, Cambridge University      |                
   ============================================================                
 
 Atomic calculation performed for Fe: 1s2 2s2 2p6 3s2 3p6 3d6 4s2
 
 Converged in 96 iterations to an ae energy of -34625.101 eV
 
   ============================================================                
   | Pseudopotential Report - Date of generation 27-06-2022   |                
   ------------------------------------------------------------                
   | Element: Fe Ionic charge:  8.00 Level of theory: PBE     |                
   | Atomic Solver: Koelling-Harmon                           |                
   |                                                          |                
   |               Reference Electronic Structure             |                
   |         Orbital         Occupation         Energy        |                
   |            3d              6.000           -0.276        |                
   |            4s              2.000           -0.194        |                
   |                                                          |                
   |                 Pseudopotential Definition               |                
   |        Beta     l      e      Rc     scheme   norm       |                
   |          1      0   -0.194   2.399     qc      0         |                
   |          2      0    0.250   2.399     qc      0         |                
   |          3      1    0.000   2.399     qc      0         |                
   |          4      1    0.250   2.399     qc      0         |                
   |          5      2   -0.276   1.997     qc      0         |                
   |          6      2    0.250   1.997     qc      0         |                
   |         loc     3    0.000   2.399     pn      0         |                
   |                                                          |                
   | Augmentation charge Rinner = 1.000                       |                
   | Partial core correction Rc = 1.000                       |                
   ------------------------------------------------------------                
   | "3|2.4|2.4|1.0|8|9|10|40:41:32U2U2(qc=5.5)"              |                
   ------------------------------------------------------------                
   |      Author: Chris J. Pickard, Cambridge University      |                
   ============================================================                
 
 Pseudo atomic calculation performed for H 1s1
 
 Converged in 16 iterations to a total energy of -12.4388 eV
 
 Pseudo atomic calculation performed for Fe 3d6 4s2
 
 Converged in 39 iterations to a total energy of -853.7730 eV
 Calculation parallelised over 128 processes.
 Data is distributed by G-vector(16-way) and k-point(8-way)

 ************************************ Title ************************************
 

 ***************************** General Parameters ******************************
  
 output verbosity                               : normal  (1)
 write checkpoint data to                       : neb-calc_1-5.check
 type of calculation                            : single point energy
 stress calculation                             : on
 density difference calculation                 : off
 electron localisation func (ELF) calculation   : off
 Hirshfeld analysis                             : off
 polarisation (Berry phase) analysis            : off
 molecular orbital projected DOS                : off
 deltaSCF calculation                           : off
 unlimited duration calculation
 timing information                             : on
 memory usage estimate                          : on
 write extra output files                       : on
 write final potential to formatted file        : off
 write final density to formatted file          : off
 write BibTeX reference list                    : on
 write OTFG pseudopotential files               : on
 write electrostatic potential file             : on
 write bands file                               : on
 checkpoint writing                             : both castep_bin and check files
  
 output         length unit                     : A
 output           mass unit                     : amu
 output           time unit                     : ps
 output         charge unit                     : e
 output           spin unit                     : hbar/2
 output         energy unit                     : eV
 output          force unit                     : eV/A
 output       velocity unit                     : A/ps
 output       pressure unit                     : GPa
 output     inv_length unit                     : 1/A
 output      frequency unit                     : cm-1
 output force constant unit                     : eV/A**2
 output         volume unit                     : A**3
 output   IR intensity unit                     : (D/A)**2/amu
 output         dipole unit                     : D
 output         efield unit                     : eV/A/e
 output        entropy unit                     : J/mol/K
 output    efield chi2 unit                     : pm/V
  
 wavefunctions paging                           : none
 random number generator seed                   : randomised (72241111)
 data distribution                              : optimal for this architecture
 optimization strategy                          : balance speed and memory

 *********************** Exchange-Correlation Parameters ***********************
  
 using functional                               : Perdew Burke Ernzerhof
 relativistic treatment                         : Koelling-Harmon
 DFT+D: Semi-empirical dispersion correction    : off

 ************************* Pseudopotential Parameters **************************
  
 pseudopotential representation                 : reciprocal space
 <beta|phi> representation                      : reciprocal space
 spin-orbit coupling                            : off

 **************************** Basis Set Parameters *****************************
  
 plane wave basis set cut-off                   :   400.0000   eV
 size of standard grid                          :     1.7500
 size of   fine   gmax                          :    17.9311   1/A
 finite basis set correction                    : automatic
 number of sample energies                      :          3
           sample  spacing                      :     5.0000   eV

 **************************** Electronic Parameters ****************************
  
 number of  electrons                           :  398.0    
 net charge of system                           :  0.000    
 net spin   of system                           :  120.0    
 number of  up  spins                           :  259.0    
 number of down spins                           :  139.0    
 treating system as spin-polarized
 number of bands                                :       1036
 electron temperature                           :     0.0000   K

 ********************* Electronic Minimization Parameters **********************
  
 Method: Treating system as metallic with ensemble DFT treatment of electrons,
         and number of  SD  steps               :          1
         and number of  CG  steps               :          4
  
 total energy / atom convergence tol.           : 0.1000E-06   eV
 max force / atom convergence tol.              : ignored
 convergence tolerance window                   :          3   cycles
 max. number of SCF cycles                      :        200
 number of fixed-spin iterations                :         10
 smearing scheme                                : Gaussian
 smearing width                                 : 0.2000       eV
 Fermi energy convergence tolerance             : 0.2721E-13   eV
 number of occupancy cycles                     :          6
 periodic dipole correction                     : NONE

 *********************** Population Analysis Parameters ************************
  
 Population analysis with cutoff                :  3.000       A
 Population analysis output                     : summary and pdos components

 *******************************************************************************
  
 
                           -------------------------------
                                      Unit Cell
                           -------------------------------
        Real Lattice(A)                      Reciprocal Lattice(1/A)
     8.0127110     0.0000000     0.0000000        0.784152244   0.000000000   0.000000000
     0.0000000     8.4987630     0.0000000        0.000000000   0.739305862   0.000000000
     0.0000000     0.0000000    18.0000000        0.000000000   0.000000000   0.349065850
 
                       Lattice parameters(A)       Cell Angles
                    a =      8.012711          alpha =   90.000000
                    b =      8.498763          beta  =   90.000000
                    c =     18.000000          gamma =   90.000000
 
                       Current cell volume =          1225.766372       A**3
                                   density =             2.198356   AMU/A**3
                                           =             3.650456     g/cm^3
 
                           -------------------------------
                                     Cell Contents
                           -------------------------------
                         Total number of ions in cell =   62
                      Total number of species in cell =    2
                        Max number of any one species =   48
 
            xxxxxxxxxxxxxxxxxxxxxxxxxxxxxxxxxxxxxxxxxxxxxxxxxxxxxxxxxxxx
            x  Element    Atom        Fractional coordinates of atoms  x
            x            Number           u          v          w      x
            x----------------------------------------------------------x
            x  H            1         0.354910   0.425663   0.225046   x 
            x  H            2         0.412006   0.657974   0.219714   x 
            x  H            3         0.598645   0.569608   0.278970   x 
            x  H            4         0.159671   0.377049   0.217475   x 
            x  H            5         0.705824   0.402820   0.227313   x 
            x  H            6         0.185395   0.746912   0.225686   x 
            x  H            7         0.956766   0.578596   0.226263   x 
            x  H            8         0.704508   0.753932   0.227624   x 
            x  H            9         0.457710   0.914558   0.229869   x 
            x  H           10         0.203259   0.076122   0.227486   x 
            x  H           11         0.949504   0.911856   0.228250   x 
            x  H           12         0.697227   0.076571   0.229800   x 
            x  H           13         0.466240   0.235876   0.231074   x 
            x  H           14         0.943240   0.242773   0.228014   x 
            x  Fe           1         0.781754   0.577866   0.273927   x 
            x  Fe           2         0.014542   0.574824   0.390102   x 
            x  Fe           3         0.016097   0.744725   0.279405   x 
            x  Fe           4         0.769249   0.913115   0.280276   x 
            x  Fe           5         0.764867   0.741253   0.390844   x 
            x  Fe           6         0.014890   0.909979   0.390673   x 
            x  Fe           7         0.018926   0.077009   0.278921   x 
            x  Fe           8         0.767293   0.241132   0.280590   x 
            x  Fe           9         0.765417   0.075864   0.391870   x 
            x  Fe          10         0.015412   0.242416   0.390497   x 
            x  Fe          11         0.015368   0.409898   0.278387   x 
            x  Fe          12         0.765262   0.409259   0.391205   x 
            x  Fe          13         0.267028   0.579286   0.276095   x 
            x  Fe          14         0.509208   0.576428   0.393016   x 
            x  Fe          15         0.518984   0.752317   0.279630   x 
            x  Fe          16         0.267433   0.910140   0.278247   x 
            x  Fe          17         0.263362   0.742461   0.390055   x 
            x  Fe          18         0.514791   0.909323   0.392084   x 
            x  Fe          19         0.518436   0.075284   0.282493   x 
            x  Fe          20         0.268174   0.245691   0.275791   x 
            x  Fe          21         0.264889   0.075955   0.389680   x 
            x  Fe          22         0.514366   0.242691   0.391827   x 
            x  Fe          23         0.516842   0.404081   0.279175   x 
            x  Fe          24         0.263643   0.409646   0.389590   x 
            x  Fe          25         0.762519   0.574298   0.503770   x 
            x  Fe          26         0.013617   0.572193   0.614438   x 
            x  Fe          27         0.012571   0.740623   0.503151   x 
            x  Fe          28         0.762792   0.907599   0.503898   x 
            x  Fe          29         0.763505   0.738429   0.615185   x 
            x  Fe          30         0.013491   0.905319   0.614433   x 
            x  Fe          31         0.012817   0.074402   0.503406   x 
            x  Fe          32         0.762815   0.241133   0.503967   x 
            x  Fe          33         0.763513   0.072196   0.615040   x 
            x  Fe          34         0.013491   0.239068   0.614436   x 
            x  Fe          35         0.012663   0.408089   0.503218   x 
            x  Fe          36         0.763503   0.405964   0.615186   x 
            x  Fe          37         0.262012   0.574309   0.502990   x 
            x  Fe          38         0.513228   0.572197   0.615234   x 
            x  Fe          39         0.512336   0.740819   0.504242   x 
            x  Fe          40         0.262530   0.908227   0.503039   x 
            x  Fe          41         0.263358   0.738785   0.614244   x 
            x  Fe          42         0.513385   0.905373   0.614899   x 
            x  Fe          43         0.512657   0.074576   0.504233   x 
            x  Fe          44         0.262484   0.240588   0.502840   x 
            x  Fe          45         0.263377   0.072195   0.614466   x 
            x  Fe          46         0.513386   0.239016   0.614898   x 
            x  Fe          47         0.512333   0.408011   0.504078   x 
            x  Fe          48         0.263360   0.405608   0.614245   x 
            xxxxxxxxxxxxxxxxxxxxxxxxxxxxxxxxxxxxxxxxxxxxxxxxxxxxxxxxxxxx
 
 
                         No user defined ionic velocities
 
                           -------------------------------
                                   Details of Species
                           -------------------------------
 
                               Mass of species in AMU
                                    H    1.0079400
                                    Fe   55.8450000
 
                          Electric Quadrupole Moment (Barn)
                                    H    0.0028600 Isotope  2
                                    Fe    0.1600000 Isotope 57
         xxxxxxxxxxxxxxxxxxxxxxxxxxxxxxxxxxxxxxxxxxxxxxxxxxxxxxxxxxxxxxxxxxxxxx
         |  Element    Atom         Initial            Initial magnetic       |
         |            Number    spin polarization        moment (uB)     Fix? |
         |--------------------------------------------------------------------|
         | H              1         0.000000              0.000       F       |
         | H              2         0.000000              0.000       F       |
         | H              3         0.000000              0.000       F       |
         | H              4         0.000000              0.000       F       |
         | H              5         0.000000              0.000       F       |
         | H              6         0.000000              0.000       F       |
         | H              7         0.000000              0.000       F       |
         | H              8         0.000000              0.000       F       |
         | H              9         0.000000              0.000       F       |
         | H             10         0.000000              0.000       F       |
         | H             11         0.000000              0.000       F       |
         | H             12         0.000000              0.000       F       |
         | H             13         0.000000              0.000       F       |
         | H             14         0.000000              0.000       F       |
         | Fe             1         0.312500              2.500       F       |
         | Fe             2         0.312500              2.500       F       |
         | Fe             3         0.312500              2.500       F       |
         | Fe             4         0.312500              2.500       F       |
         | Fe             5         0.312500              2.500       F       |
         | Fe             6         0.312500              2.500       F       |
         | Fe             7         0.312500              2.500       F       |
         | Fe             8         0.312500              2.500       F       |
         | Fe             9         0.312500              2.500       F       |
         | Fe            10         0.312500              2.500       F       |
         | Fe            11         0.312500              2.500       F       |
         | Fe            12         0.312500              2.500       F       |
         | Fe            13         0.312500              2.500       F       |
         | Fe            14         0.312500              2.500       F       |
         | Fe            15         0.312500              2.500       F       |
         | Fe            16         0.312500              2.500       F       |
         | Fe            17         0.312500              2.500       F       |
         | Fe            18         0.312500              2.500       F       |
         | Fe            19         0.312500              2.500       F       |
         | Fe            20         0.312500              2.500       F       |
         | Fe            21         0.312500              2.500       F       |
         | Fe            22         0.312500              2.500       F       |
         | Fe            23         0.312500              2.500       F       |
         | Fe            24         0.312500              2.500       F       |
         | Fe            25         0.312500              2.500       F       |
         | Fe            26         0.312500              2.500       F       |
         | Fe            27         0.312500              2.500       F       |
         | Fe            28         0.312500              2.500       F       |
         | Fe            29         0.312500              2.500       F       |
         | Fe            30         0.312500              2.500       F       |
         | Fe            31         0.312500              2.500       F       |
         | Fe            32         0.312500              2.500       F       |
         | Fe            33         0.312500              2.500       F       |
         | Fe            34         0.312500              2.500       F       |
         | Fe            35         0.312500              2.500       F       |
         | Fe            36         0.312500              2.500       F       |
         | Fe            37         0.312500              2.500       F       |
         | Fe            38         0.312500              2.500       F       |
         | Fe            39         0.312500              2.500       F       |
         | Fe            40         0.312500              2.500       F       |
         | Fe            41         0.312500              2.500       F       |
         | Fe            42         0.312500              2.500       F       |
         | Fe            43         0.312500              2.500       F       |
         | Fe            44         0.312500              2.500       F       |
         | Fe            45         0.312500              2.500       F       |
         | Fe            46         0.312500              2.500       F       |
         | Fe            47         0.312500              2.500       F       |
         | Fe            48         0.312500              2.500       F       |
         xxxxxxxxxxxxxxxxxxxxxxxxxxxxxxxxxxxxxxxxxxxxxxxxxxxxxxxxxxxxxxxxxxxxxx
 
 
                          Files used for pseudopotentials:
                                    H 1|0.6|13|15|17|10(qc=8)
                                    Fe 3|2.4|2.4|1.0|8|9|10|40:41:32U2U2(qc=5.5)
 
                           -------------------------------
                              k-Points For BZ Sampling
                           -------------------------------
                       MP grid size for SCF calculation is  4  4  1
                            with an offset of   0.000  0.000  0.000
                       Number of kpoints used =   8
 
                           -------------------------------
                               Symmetry and Constraints
                           -------------------------------
 
                      Maximum deviation from symmetry =  0.00000         ANG
 
                      Number of symmetry operations   = 1
                      Number of ionic constraints     = 3
                      Point group of crystal =     1: C1, 1, 1
                      Space group of crystal =     1: P1, P 1
 
             Set iprint > 1 for details on symmetry rotations/translations
 
                         Centre of mass is constrained
             Set iprint > 1 for details of linear ionic constraints
 
                         Number of cell constraints= 0
                         Cell constraints are:  1 2 3 4 5 6
 
                         External pressure/stress (GPa)
                          0.00000   0.00000   0.00000
                                    0.00000   0.00000
                                              0.00000
  
+---------------- MEMORY AND SCRATCH DISK ESTIMATES PER PROCESS --------------+
|                                                     Memory          Disk    |
| Baseline code, static data and system overhead      771.0 MB         0.0 MB |
| BLAS internal memory storage                          0.0 MB         0.0 MB |
| Model and support data                              262.5 MB        43.6 MB |
| Electronic energy minimisation requirements         456.9 MB         0.0 MB |
| Force calculation requirements                        3.7 MB         0.0 MB |
| Stress calculation requirements                       3.7 MB         0.0 MB |
|                                               ----------------------------- |
| Approx. total storage required per process         1490.3 MB        43.6 MB |
|                                                                             |
| Requirements will fluctuate during execution and may exceed these estimates |
+-----------------------------------------------------------------------------+
Calculating finite basis set correction with  3 cut-off energies.
Calculating total energy with cut-off of  390.000 eV.
Calculating approximate eigenstates for fixed initial Hamiltonian
Cut-off for approx. calculation is  159.419 eV
Improving approx. states at cut-off of  217.691 eV
Resetting cut-off to  389.869 eV
Improving states further at cut-off of  389.869 eV
------------------------------------------------------------------------ <-- SCF
SCF loop      Energy           Fermi           Energy gain       Timer   <-- SCF
                               energy          per atom          (sec)   <-- SCF
------------------------------------------------------------------------ <-- SCF
Initial   3.22699865E+004 -6.20274645E+001                       238.44  <-- SCF
      1  -4.12441394E+004 -8.88693045E+000   1.18571171E+003    1263.56  <-- SCF
      2  -4.15729441E+004 -3.00135511E+000   5.30330060E+000    2261.31  <-- SCF
      3  -4.16183457E+004 -8.46864011E-001   7.32284873E-001    3279.75  <-- SCF
      4  -4.16257906E+004 -8.45221121E-002   1.20078767E-001    4294.56  <-- SCF
      5  -4.16268648E+004  1.53694094E-001   1.73251988E-002    5299.41  <-- SCF
      6  -4.16269953E+004  2.19025970E-001   2.10601641E-003    6170.80  <-- SCF
      7  -4.16270000E+004  2.22684123E-001   7.48232457E-005    7221.02  <-- SCF
      8  -4.16270001E+004  2.22277092E-001   1.18987552E-006    8285.73  <-- SCF
      9  -4.16270001E+004  2.22237590E-001   3.66235540E-008    9217.63  <-- SCF
     10  -4.16272832E+004  1.52645046E-001   4.56676817E-003    9843.69  <-- SCF
     11  -4.16273275E+004  1.39053790E-001   7.15440487E-004   10707.33  <-- SCF
     12  -4.16273342E+004  1.34717681E-001   1.06589803E-004   11760.26  <-- SCF
     13  -4.16273351E+004  1.32723043E-001   1.58096688E-005   12805.83  <-- SCF
     14  -4.16273352E+004  1.32434848E-001   3.85752016E-007   13552.84  <-- SCF
     15  -4.16273352E+004  1.32434848E-001   0.00000000E+000   14119.98  <-- SCF
     16  -4.16273352E+004  1.32434848E-001   3.99171152E-013   14682.02  <-- SCF
------------------------------------------------------------------------ <-- SCF
 
Integrated Spin Density     =     113.122     hbar/2                        
Integrated |Spin Density|   =     118.354     hbar/2                        
 
Final energy, E             =  -41626.33343885     eV
Final free energy (E-TS)    =  -41627.33516230     eV
(energies not corrected for finite basis set)
 
NB est. 0K energy (E-0.5TS)      =  -41626.83430057     eV
 
Calculating total energy with cut-off of  395.000 eV.
------------------------------------------------------------------------ <-- SCF
SCF loop      Energy           Fermi           Energy gain       Timer   <-- SCF
                               energy          per atom          (sec)   <-- SCF
------------------------------------------------------------------------ <-- SCF
Initial  -4.16268838E+004  1.33602513E-001                     14723.24  <-- SCF
      1  -4.16274211E+004  1.32534774E-001   8.66475381E-003   15168.13  <-- SCF
      2  -4.16274213E+004  1.32311844E-001   3.46394479E-006   15857.80  <-- SCF
      3  -4.16274213E+004  1.32311622E-001   9.58010765E-012   16464.62  <-- SCF
      4  -4.16274213E+004  1.32311622E-001   0.00000000E+000   17052.57  <-- SCF
------------------------------------------------------------------------ <-- SCF
 
Integrated Spin Density     =     113.096     hbar/2                        
Integrated |Spin Density|   =     118.326     hbar/2                        
 
Final energy, E             =  -41626.41876734     eV
Final free energy (E-TS)    =  -41627.42127024     eV
(energies not corrected for finite basis set)
 
NB est. 0K energy (E-0.5TS)      =  -41626.92001879     eV
 
Calculating total energy with cut-off of  400.000 eV.
------------------------------------------------------------------------ <-- SCF
SCF loop      Energy           Fermi           Energy gain       Timer   <-- SCF
                               energy          per atom          (sec)   <-- SCF
------------------------------------------------------------------------ <-- SCF
Initial  -4.16269976E+004  1.32133232E-001                     17095.20  <-- SCF
      1  -4.16274917E+004  1.32400677E-001   7.96787801E-003   17531.99  <-- SCF
      2  -4.16274919E+004  1.32180058E-001   4.08736211E-006   18260.58  <-- SCF
      3  -4.16274919E+004  1.32180027E-001   2.59461249E-012   18919.86  <-- SCF
      4  -4.16274919E+004  1.32180027E-001   0.00000000E+000   19511.17  <-- SCF
------------------------------------------------------------------------ <-- SCF
 
Integrated Spin Density     =     113.088     hbar/2                        
Integrated |Spin Density|   =     118.320     hbar/2                        
 
Final energy, E             =  -41626.48916458     eV
Final free energy (E-TS)    =  -41627.49191139     eV
(energies not corrected for finite basis set)
 
NB est. 0K energy (E-0.5TS)      =  -41626.99053798     eV
 
 For future reference: finite basis dEtot/dlog(Ecut) =      -6.067215eV
 Total energy corrected for finite basis set =  -41627.490738 eV
 
 ************************** Forces **************************
 *                                                          *
 *               Cartesian components (eV/A)                *
 * -------------------------------------------------------- *
 *                         x            y            z      *
 *                                                          *
 * H               1      0.02338      0.02525     -0.05364 *
 * H               2     -0.09596     -0.04514     -0.34299 *
 * H               3     -1.57366      0.81043      0.25177 *
 * H               4      0.02440      0.06393     -0.01475 *
 * H               5     -0.00597      0.06980      0.05450 *
 * H               6      0.04501     -0.00196      0.03717 *
 * H               7      0.33738     -0.02268     -0.22660 *
 * H               8     -0.02699     -0.12005      0.01866 *
 * H               9     -0.02272     -0.01106     -0.04029 *
 * H              10     -0.03144      0.01438     -0.00283 *
 * H              11      0.02277     -0.00659      0.02515 *
 * H              12      0.00097     -0.00665     -0.00174 *
 * H              13      0.01515     -0.06206     -0.05200 *
 * H              14      0.03178     -0.00334      0.06212 *
 * Fe              1      0.56770      0.06884      0.43216 *
 * Fe              2     -0.00960      0.12936      0.04777 *
 * Fe              3      0.22325      0.16833      0.02691 *
 * Fe              4      0.00322     -0.05969     -0.02034 *
 * Fe              5      0.01109     -0.00768     -0.03620 *
 * Fe              6      0.00643     -0.08013      0.00737 *
 * Fe              7      0.00111      0.08592      0.02345 *
 * Fe              8     -0.02190     -0.05480     -0.06116 *
 * Fe              9     -0.01760      0.09004      0.03171 *
 * Fe             10      0.00088     -0.02778     -0.00752 *
 * Fe             11      0.07350     -0.27096      0.07126 *
 * Fe             12     -0.03410      0.04543     -0.09089 *
 * Fe             13      0.08323     -0.04553     -0.05433 *
 * Fe             14      0.44742     -0.00785     -0.33753 *
 * Fe             15      0.11699      0.03563      0.15396 *
 * Fe             16     -0.04956      0.11459      0.02996 *
 * Fe             17     -0.02450     -0.00539     -0.02814 *
 * Fe             18      0.01232     -0.04500      0.04899 *
 * Fe             19      0.01743     -0.09993      0.03970 *
 * Fe             20     -0.10697     -0.11499     -0.05867 *
 * Fe             21     -0.01683      0.10948      0.00545 *
 * Fe             22      0.01420     -0.02624     -0.00260 *
 * Fe             23     -0.02081     -1.03348      0.20727 *
 * Fe             24     -0.04120     -0.07765     -0.01348 *
 * Fe             25      0.02102      0.05573     -0.02906 *
 * Fe             26     -0.00478      0.06769     -0.01832 *
 * Fe             27      0.01226      0.01893      0.00022 *
 * Fe             28      0.01259     -0.08498      0.02381 *
 * Fe             29     -0.00761      0.06621     -0.04915 *
 * Fe             30     -0.00508     -0.02790     -0.01740 *
 * Fe             31      0.00884      0.07230      0.00949 *
 * Fe             32      0.00474      0.01870      0.02706 *
 * Fe             33      0.00335      0.07069     -0.02485 *
 * Fe             34     -0.00213      0.05064     -0.01014 *
 * Fe             35      0.00566     -0.07803     -0.00445 *
 * Fe             36     -0.00303     -0.03857     -0.04429 *
 * Fe             37      0.01992      0.07680     -0.00111 *
 * Fe             38     -0.02218      0.06230     -0.00665 *
 * Fe             39      0.01154      0.00436      0.00864 *
 * Fe             40      0.01084     -0.08004     -0.00420 *
 * Fe             41     -0.01998      0.05753     -0.00601 *
 * Fe             42     -0.00677     -0.01547      0.00927 *
 * Fe             43      0.00643      0.06195      0.04677 *
 * Fe             44      0.01972      0.02706      0.00163 *
 * Fe             45     -0.01713      0.07624     -0.02628 *
 * Fe             46     -0.01378      0.05076      0.01737 *
 * Fe             47      0.00616     -0.06211     -0.01447 *
 * Fe             48     -0.02037     -0.04560     -0.01753 *
 *                                                          *
 ************************************************************
 
 ***************** Stress Tensor *****************
 *                                               *
 *          Cartesian components (GPa)           *
 * --------------------------------------------- *
 *             x             y             z     *
 *                                               *
 *  x     -2.390692     -0.063861     -0.109282  *
 *  y     -0.063861      0.639472     -0.256123  *
 *  z     -0.109282     -0.256123     -0.503163  *
 *                                               *
 *  Pressure:    0.7515                          *
 *                                               *
 *************************************************
 
 Pseudo atomic calculation performed for H 1s1
 
 Converged in 16 iterations to a total energy of -12.4388 eV
 
 Pseudo atomic calculation performed for Fe 3d6 4s2
 
 Converged in 39 iterations to a total energy of -853.7730 eV
Charge spilling parameter for spin component 1 = 0.16%
Charge spilling parameter for spin component 2 = 0.53%
 
                   Orbital Populations                  
  ---------------------------------------------------------------
     Ion    Atom   Orbital              Up        Down      Spin
  ---------------------------------------------------------------
      H     1      S                    0.577     0.644    -0.067
      H     2      S                    0.568     0.645    -0.077
      H     3      S                    0.654     0.710    -0.056
      H     4      S                    0.568     0.652    -0.084
      H     5      S                    0.596     0.663    -0.067
      H     6      S                    0.594     0.667    -0.074
      H     7      S                    0.615     0.671    -0.057
      H     8      S                    0.597     0.667    -0.069
      H     9      S                    0.603     0.663    -0.059
      H    10      S                    0.606     0.673    -0.067
      H    11      S                    0.602     0.669    -0.068
      H    12      S                    0.600     0.669    -0.069
      H    13      S                    0.599     0.657    -0.058
      H    14      S                    0.595     0.667    -0.072
     Fe     1      Dzz                  0.940     0.436     0.504
     Fe     1      Dzy                  0.896     0.487     0.408
     Fe     1      Dzx                  0.920     0.376     0.544
     Fe     1      Dxx-yy               0.859     0.358     0.501
     Fe     1      Dxy                  0.870     0.610     0.260
     Fe     1      S                    0.290     0.259     0.032
     Fe     1      Px                  -0.025    -0.025     0.001
     Fe     1      Py                   0.092     0.103    -0.011
     Fe     1      Pz                   0.065     0.050     0.015
     Fe     2      Dzz                  0.897     0.453     0.444
     Fe     2      Dzy                  0.900     0.489     0.411
     Fe     2      Dzx                  0.950     0.293     0.657
     Fe     2      Dxx-yy               0.935     0.348     0.586
     Fe     2      Dxy                  0.876     0.511     0.364
     Fe     2      S                    0.338     0.359    -0.021
     Fe     2      Px                   0.066     0.104    -0.038
     Fe     2      Py                   0.075     0.122    -0.048
     Fe     2      Pz                   0.089     0.158    -0.069
     Fe     3      Dzz                  0.949     0.455     0.494
     Fe     3      Dzy                  0.873     0.476     0.397
     Fe     3      Dzx                  0.899     0.348     0.552
     Fe     3      Dxx-yy               0.913     0.342     0.571
     Fe     3      Dxy                  0.871     0.574     0.297
     Fe     3      S                    0.335     0.309     0.025
     Fe     3      Px                   0.062     0.093    -0.031
     Fe     3      Py                   0.090     0.103    -0.012
     Fe     3      Pz                   0.046     0.037     0.008
     Fe     4      Dzz                  0.951     0.447     0.504
     Fe     4      Dzy                  0.872     0.474     0.398
     Fe     4      Dzx                  0.915     0.330     0.585
     Fe     4      Dxx-yy               0.912     0.345     0.567
     Fe     4      Dxy                  0.874     0.572     0.302
     Fe     4      S                    0.331     0.306     0.025
     Fe     4      Px                   0.060     0.086    -0.026
     Fe     4      Py                   0.089     0.107    -0.018
     Fe     4      Pz                   0.047     0.037     0.010
     Fe     5      Dzz                  0.907     0.438     0.469
     Fe     5      Dzy                  0.910     0.476     0.434
     Fe     5      Dzx                  0.950     0.293     0.657
     Fe     5      Dxx-yy               0.936     0.343     0.593
     Fe     5      Dxy                  0.885     0.500     0.385
     Fe     5      S                    0.333     0.355    -0.022
     Fe     5      Px                   0.074     0.111    -0.038
     Fe     5      Py                   0.080     0.133    -0.053
     Fe     5      Pz                   0.101     0.170    -0.069
     Fe     6      Dzz                  0.897     0.450     0.447
     Fe     6      Dzy                  0.904     0.489     0.415
     Fe     6      Dzx                  0.950     0.297     0.654
     Fe     6      Dxx-yy               0.935     0.348     0.587
     Fe     6      Dxy                  0.877     0.503     0.374
     Fe     6      S                    0.339     0.362    -0.023
     Fe     6      Px                   0.069     0.109    -0.040
     Fe     6      Py                   0.072     0.122    -0.051
     Fe     6      Pz                   0.087     0.156    -0.069
     Fe     7      Dzz                  0.954     0.426     0.528
     Fe     7      Dzy                  0.884     0.477     0.407
     Fe     7      Dzx                  0.918     0.327     0.592
     Fe     7      Dxx-yy               0.919     0.346     0.574
     Fe     7      Dxy                  0.872     0.558     0.315
     Fe     7      S                    0.333     0.303     0.029
     Fe     7      Px                   0.070     0.097    -0.026
     Fe     7      Py                   0.086     0.098    -0.012
     Fe     7      Pz                   0.051     0.038     0.013
     Fe     8      Dzz                  0.951     0.447     0.504
     Fe     8      Dzy                  0.870     0.479     0.391
     Fe     8      Dzx                  0.913     0.331     0.582
     Fe     8      Dxx-yy               0.915     0.341     0.574
     Fe     8      Dxy                  0.877     0.566     0.311
     Fe     8      S                    0.331     0.306     0.025
     Fe     8      Px                   0.067     0.093    -0.026
     Fe     8      Py                   0.094     0.110    -0.016
     Fe     8      Pz                   0.045     0.034     0.012
     Fe     9      Dzz                  0.897     0.446     0.451
     Fe     9      Dzy                  0.899     0.500     0.399
     Fe     9      Dzx                  0.949     0.299     0.650
     Fe     9      Dxx-yy               0.934     0.346     0.588
     Fe     9      Dxy                  0.878     0.503     0.375
     Fe     9      S                    0.338     0.361    -0.023
     Fe     9      Px                   0.070     0.109    -0.039
     Fe     9      Py                   0.068     0.117    -0.049
     Fe     9      Pz                   0.086     0.153    -0.067
     Fe    10      Dzz                  0.899     0.450     0.449
     Fe    10      Dzy                  0.904     0.486     0.418
     Fe    10      Dzx                  0.952     0.292     0.660
     Fe    10      Dxx-yy               0.935     0.345     0.589
     Fe    10      Dxy                  0.876     0.508     0.369
     Fe    10      S                    0.339     0.361    -0.022
     Fe    10      Px                   0.068     0.107    -0.039
     Fe    10      Py                   0.074     0.123    -0.049
     Fe    10      Pz                   0.087     0.156    -0.070
     Fe    11      Dzz                  0.935     0.498     0.437
     Fe    11      Dzy                  0.874     0.463     0.412
     Fe    11      Dzx                  0.885     0.351     0.534
     Fe    11      Dxx-yy               0.921     0.349     0.572
     Fe    11      Dxy                  0.864     0.571     0.293
     Fe    11      S                    0.329     0.307     0.022
     Fe    11      Px                   0.065     0.102    -0.037
     Fe    11      Py                   0.093     0.106    -0.013
     Fe    11      Pz                   0.039     0.034     0.004
     Fe    12      Dzz                  0.905     0.444     0.461
     Fe    12      Dzy                  0.911     0.472     0.439
     Fe    12      Dzx                  0.950     0.293     0.657
     Fe    12      Dxx-yy               0.934     0.349     0.585
     Fe    12      Dxy                  0.888     0.494     0.395
     Fe    12      S                    0.333     0.357    -0.023
     Fe    12      Px                   0.073     0.110    -0.037
     Fe    12      Py                   0.079     0.133    -0.054
     Fe    12      Pz                   0.099     0.168    -0.069
     Fe    13      Dzz                  0.948     0.483     0.465
     Fe    13      Dzy                  0.884     0.470     0.414
     Fe    13      Dzx                  0.929     0.297     0.631
     Fe    13      Dxx-yy               0.943     0.377     0.567
     Fe    13      Dxy                  0.846     0.498     0.347
     Fe    13      S                    0.329     0.297     0.032
     Fe    13      Px                   0.089     0.116    -0.027
     Fe    13      Py                   0.092     0.097    -0.005
     Fe    13      Pz                   0.043     0.020     0.022
     Fe    14      Dzz                  0.906     0.432     0.474
     Fe    14      Dzy                  0.904     0.489     0.415
     Fe    14      Dzx                  0.958     0.285     0.673
     Fe    14      Dxx-yy               0.937     0.347     0.589
     Fe    14      Dxy                  0.883     0.509     0.374
     Fe    14      S                    0.347     0.365    -0.018
     Fe    14      Px                   0.073     0.109    -0.036
     Fe    14      Py                   0.082     0.132    -0.050
     Fe    14      Pz                   0.107     0.165    -0.059
     Fe    15      Dzz                  0.922     0.518     0.405
     Fe    15      Dzy                  0.860     0.533     0.327
     Fe    15      Dzx                  0.884     0.357     0.527
     Fe    15      Dxx-yy               0.906     0.371     0.534
     Fe    15      Dxy                  0.849     0.553     0.296
     Fe    15      S                    0.295     0.277     0.018
     Fe    15      Px                   0.079     0.108    -0.029
     Fe    15      Py                   0.055     0.061    -0.006
     Fe    15      Pz                   0.037     0.029     0.008
     Fe    16      Dzz                  0.953     0.439     0.514
     Fe    16      Dzy                  0.885     0.474     0.411
     Fe    16      Dzx                  0.931     0.305     0.626
     Fe    16      Dxx-yy               0.922     0.337     0.585
     Fe    16      Dxy                  0.874     0.554     0.320
     Fe    16      S                    0.331     0.298     0.033
     Fe    16      Px                   0.061     0.084    -0.023
     Fe    16      Py                   0.082     0.089    -0.008
     Fe    16      Pz                   0.053     0.037     0.015
     Fe    17      Dzz                  0.898     0.447     0.451
     Fe    17      Dzy                  0.905     0.487     0.418
     Fe    17      Dzx                  0.950     0.295     0.655
     Fe    17      Dxx-yy               0.934     0.345     0.589
     Fe    17      Dxy                  0.876     0.511     0.365
     Fe    17      S                    0.335     0.359    -0.024
     Fe    17      Px                   0.067     0.105    -0.038
     Fe    17      Py                   0.074     0.124    -0.050
     Fe    17      Pz                   0.090     0.160    -0.070
     Fe    18      Dzz                  0.899     0.444     0.456
     Fe    18      Dzy                  0.905     0.484     0.421
     Fe    18      Dzx                  0.951     0.299     0.652
     Fe    18      Dxx-yy               0.937     0.347     0.590
     Fe    18      Dxy                  0.884     0.496     0.388
     Fe    18      S                    0.342     0.360    -0.018
     Fe    18      Px                   0.074     0.115    -0.040
     Fe    18      Py                   0.072     0.123    -0.051
     Fe    18      Pz                   0.079     0.147    -0.068
     Fe    19      Dzz                  0.948     0.447     0.501
     Fe    19      Dzy                  0.853     0.520     0.332
     Fe    19      Dzx                  0.906     0.345     0.561
     Fe    19      Dxx-yy               0.901     0.355     0.547
     Fe    19      Dxy                  0.876     0.564     0.312
     Fe    19      S                    0.328     0.308     0.021
     Fe    19      Px                   0.071     0.103    -0.032
     Fe    19      Py                   0.083     0.097    -0.014
     Fe    19      Pz                   0.042     0.032     0.011
     Fe    20      Dzz                  0.949     0.485     0.464
     Fe    20      Dzy                  0.883     0.463     0.420
     Fe    20      Dzx                  0.932     0.299     0.632
     Fe    20      Dxx-yy               0.922     0.348     0.573
     Fe    20      Dxy                  0.860     0.547     0.313
     Fe    20      S                    0.327     0.295     0.032
     Fe    20      Px                   0.056     0.074    -0.018
     Fe    20      Py                   0.089     0.095    -0.006
     Fe    20      Pz                   0.053     0.037     0.016
     Fe    21      Dzz                  0.900     0.446     0.453
     Fe    21      Dzy                  0.904     0.484     0.420
     Fe    21      Dzx                  0.948     0.301     0.647
     Fe    21      Dxx-yy               0.933     0.343     0.591
     Fe    21      Dxy                  0.876     0.516     0.360
     Fe    21      S                    0.336     0.360    -0.024
     Fe    21      Px                   0.067     0.108    -0.041
     Fe    21      Py                   0.074     0.123    -0.049
     Fe    21      Pz                   0.095     0.164    -0.069
     Fe    22      Dzz                  0.904     0.438     0.466
     Fe    22      Dzy                  0.903     0.489     0.413
     Fe    22      Dzx                  0.951     0.295     0.657
     Fe    22      Dxx-yy               0.938     0.345     0.593
     Fe    22      Dxy                  0.881     0.499     0.381
     Fe    22      S                    0.338     0.357    -0.019
     Fe    22      Px                   0.072     0.112    -0.040
     Fe    22      Py                   0.074     0.126    -0.052
     Fe    22      Pz                   0.084     0.152    -0.068
     Fe    23      Dzz                  0.932     0.498     0.434
     Fe    23      Dzy                  0.897     0.543     0.355
     Fe    23      Dzx                  0.876     0.359     0.517
     Fe    23      Dxx-yy               0.884     0.346     0.539
     Fe    23      Dxy                  0.860     0.570     0.290
     Fe    23      S                    0.276     0.258     0.017
     Fe    23      Px                   0.062     0.086    -0.024
     Fe    23      Py                   0.028     0.029    -0.001
     Fe    23      Pz                   0.053     0.053     0.000
     Fe    24      Dzz                  0.901     0.451     0.451
     Fe    24      Dzy                  0.910     0.468     0.442
     Fe    24      Dzx                  0.951     0.297     0.654
     Fe    24      Dxx-yy               0.934     0.344     0.590
     Fe    24      Dxy                  0.879     0.511     0.368
     Fe    24      S                    0.334     0.356    -0.022
     Fe    24      Px                   0.065     0.103    -0.038
     Fe    24      Py                   0.075     0.124    -0.049
     Fe    24      Pz                   0.088     0.160    -0.072
     Fe    25      Dzz                  0.901     0.455     0.446
     Fe    25      Dzy                  0.907     0.493     0.414
     Fe    25      Dzx                  0.951     0.299     0.651
     Fe    25      Dxx-yy               0.932     0.354     0.578
     Fe    25      Dxy                  0.872     0.499     0.373
     Fe    25      S                    0.333     0.361    -0.028
     Fe    25      Px                   0.070     0.110    -0.041
     Fe    25      Py                   0.076     0.136    -0.060
     Fe    25      Pz                   0.079     0.143    -0.064
     Fe    26      Dzz                  0.950     0.349     0.600
     Fe    26      Dzy                  0.942     0.438     0.505
     Fe    26      Dzx                  0.959     0.312     0.647
     Fe    26      Dxx-yy               0.926     0.370     0.556
     Fe    26      Dxy                  0.882     0.528     0.354
     Fe    26      S                    0.407     0.387     0.020
     Fe    26      Px                   0.078     0.089    -0.011
     Fe    26      Py                   0.118     0.177    -0.059
     Fe    26      Pz                   0.058     0.064    -0.006
     Fe    27      Dzz                  0.902     0.456     0.446
     Fe    27      Dzy                  0.907     0.490     0.416
     Fe    27      Dzx                  0.949     0.298     0.651
     Fe    27      Dxx-yy               0.932     0.353     0.579
     Fe    27      Dxy                  0.871     0.503     0.367
     Fe    27      S                    0.332     0.359    -0.028
     Fe    27      Px                   0.069     0.109    -0.041
     Fe    27      Py                   0.077     0.136    -0.060
     Fe    27      Pz                   0.078     0.140    -0.063
     Fe    28      Dzz                  0.900     0.457     0.444
     Fe    28      Dzy                  0.908     0.491     0.418
     Fe    28      Dzx                  0.950     0.298     0.651
     Fe    28      Dxx-yy               0.932     0.356     0.576
     Fe    28      Dxy                  0.874     0.496     0.378
     Fe    28      S                    0.332     0.361    -0.028
     Fe    28      Px                   0.070     0.110    -0.041
     Fe    28      Py                   0.077     0.139    -0.062
     Fe    28      Pz                   0.078     0.142    -0.064
     Fe    29      Dzz                  0.951     0.347     0.604
     Fe    29      Dzy                  0.943     0.440     0.503
     Fe    29      Dzx                  0.959     0.307     0.652
     Fe    29      Dxx-yy               0.928     0.366     0.562
     Fe    29      Dxy                  0.881     0.532     0.349
     Fe    29      S                    0.407     0.386     0.021
     Fe    29      Px                   0.079     0.087    -0.008
     Fe    29      Py                   0.119     0.178    -0.059
     Fe    29      Pz                   0.059     0.064    -0.005
     Fe    30      Dzz                  0.951     0.349     0.602
     Fe    30      Dzy                  0.943     0.435     0.509
     Fe    30      Dzx                  0.958     0.312     0.647
     Fe    30      Dxx-yy               0.927     0.368     0.559
     Fe    30      Dxy                  0.882     0.529     0.353
     Fe    30      S                    0.407     0.386     0.021
     Fe    30      Px                   0.080     0.089    -0.010
     Fe    30      Py                   0.118     0.178    -0.060
     Fe    30      Pz                   0.059     0.064    -0.005
     Fe    31      Dzz                  0.900     0.457     0.443
     Fe    31      Dzy                  0.906     0.493     0.413
     Fe    31      Dzx                  0.948     0.299     0.649
     Fe    31      Dxx-yy               0.931     0.355     0.576
     Fe    31      Dxy                  0.871     0.503     0.367
     Fe    31      S                    0.332     0.361    -0.029
     Fe    31      Px                   0.069     0.110    -0.041
     Fe    31      Py                   0.075     0.136    -0.061
     Fe    31      Pz                   0.076     0.140    -0.064
     Fe    32      Dzz                  0.901     0.456     0.445
     Fe    32      Dzy                  0.905     0.497     0.409
     Fe    32      Dzx                  0.950     0.297     0.653
     Fe    32      Dxx-yy               0.932     0.354     0.578
     Fe    32      Dxy                  0.871     0.500     0.371
     Fe    32      S                    0.332     0.360    -0.028
     Fe    32      Px                   0.069     0.110    -0.041
     Fe    32      Py                   0.077     0.137    -0.060
     Fe    32      Pz                   0.077     0.140    -0.064
     Fe    33      Dzz                  0.950     0.351     0.599
     Fe    33      Dzy                  0.944     0.434     0.509
     Fe    33      Dzx                  0.959     0.311     0.649
     Fe    33      Dxx-yy               0.927     0.370     0.557
     Fe    33      Dxy                  0.883     0.526     0.356
     Fe    33      S                    0.405     0.385     0.020
     Fe    33      Px                   0.080     0.089    -0.009
     Fe    33      Py                   0.120     0.178    -0.058
     Fe    33      Pz                   0.058     0.063    -0.005
     Fe    34      Dzz                  0.951     0.347     0.603
     Fe    34      Dzy                  0.942     0.439     0.503
     Fe    34      Dzx                  0.959     0.311     0.648
     Fe    34      Dxx-yy               0.927     0.366     0.562
     Fe    34      Dxy                  0.881     0.533     0.348
     Fe    34      S                    0.407     0.386     0.021
     Fe    34      Px                   0.079     0.089    -0.009
     Fe    34      Py                   0.119     0.178    -0.059
     Fe    34      Pz                   0.058     0.064    -0.005
     Fe    35      Dzz                  0.899     0.460     0.439
     Fe    35      Dzy                  0.907     0.488     0.420
     Fe    35      Dzx                  0.949     0.298     0.651
     Fe    35      Dxx-yy               0.931     0.356     0.575
     Fe    35      Dxy                  0.873     0.501     0.373
     Fe    35      S                    0.332     0.360    -0.028
     Fe    35      Px                   0.069     0.109    -0.041
     Fe    35      Py                   0.076     0.136    -0.060
     Fe    35      Pz                   0.077     0.139    -0.063
     Fe    36      Dzz                  0.950     0.349     0.601
     Fe    36      Dzy                  0.943     0.436     0.508
     Fe    36      Dzx                  0.959     0.308     0.651
     Fe    36      Dxx-yy               0.927     0.369     0.559
     Fe    36      Dxy                  0.882     0.529     0.354
     Fe    36      S                    0.407     0.386     0.021
     Fe    36      Px                   0.079     0.088    -0.009
     Fe    36      Py                   0.119     0.178    -0.059
     Fe    36      Pz                   0.059     0.064    -0.005
     Fe    37      Dzz                  0.900     0.456     0.444
     Fe    37      Dzy                  0.908     0.487     0.421
     Fe    37      Dzx                  0.950     0.300     0.650
     Fe    37      Dxx-yy               0.931     0.354     0.578
     Fe    37      Dxy                  0.873     0.501     0.371
     Fe    37      S                    0.332     0.360    -0.028
     Fe    37      Px                   0.068     0.108    -0.040
     Fe    37      Py                   0.075     0.135    -0.060
     Fe    37      Pz                   0.078     0.142    -0.065
     Fe    38      Dzz                  0.949     0.353     0.596
     Fe    38      Dzy                  0.943     0.436     0.507
     Fe    38      Dzx                  0.959     0.308     0.651
     Fe    38      Dxx-yy               0.925     0.371     0.554
     Fe    38      Dxy                  0.883     0.529     0.353
     Fe    38      S                    0.408     0.386     0.021
     Fe    38      Px                   0.079     0.087    -0.008
     Fe    38      Py                   0.119     0.178    -0.059
     Fe    38      Pz                   0.057     0.063    -0.005
     Fe    39      Dzz                  0.900     0.459     0.441
     Fe    39      Dzy                  0.902     0.498     0.404
     Fe    39      Dzx                  0.949     0.297     0.652
     Fe    39      Dxx-yy               0.932     0.354     0.578
     Fe    39      Dxy                  0.871     0.502     0.369
     Fe    39      S                    0.333     0.361    -0.028
     Fe    39      Px                   0.070     0.111    -0.041
     Fe    39      Py                   0.077     0.136    -0.059
     Fe    39      Pz                   0.075     0.137    -0.062
     Fe    40      Dzz                  0.900     0.457     0.443
     Fe    40      Dzy                  0.909     0.486     0.423
     Fe    40      Dzx                  0.949     0.300     0.650
     Fe    40      Dxx-yy               0.931     0.355     0.576
     Fe    40      Dxy                  0.873     0.499     0.374
     Fe    40      S                    0.331     0.360    -0.029
     Fe    40      Px                   0.069     0.110    -0.041
     Fe    40      Py                   0.076     0.136    -0.061
     Fe    40      Pz                   0.078     0.142    -0.064
     Fe    41      Dzz                  0.951     0.347     0.603
     Fe    41      Dzy                  0.943     0.439     0.503
     Fe    41      Dzx                  0.959     0.311     0.647
     Fe    41      Dxx-yy               0.928     0.366     0.561
     Fe    41      Dxy                  0.880     0.532     0.348
     Fe    41      S                    0.406     0.386     0.020
     Fe    41      Px                   0.079     0.088    -0.010
     Fe    41      Py                   0.118     0.177    -0.059
     Fe    41      Pz                   0.059     0.065    -0.005
     Fe    42      Dzz                  0.950     0.351     0.598
     Fe    42      Dzy                  0.942     0.439     0.503
     Fe    42      Dzx                  0.959     0.309     0.649
     Fe    42      Dxx-yy               0.926     0.369     0.557
     Fe    42      Dxy                  0.881     0.530     0.352
     Fe    42      S                    0.407     0.387     0.020
     Fe    42      Px                   0.079     0.088    -0.009
     Fe    42      Py                   0.119     0.179    -0.060
     Fe    42      Pz                   0.057     0.063    -0.005
     Fe    43      Dzz                  0.899     0.457     0.443
     Fe    43      Dzy                  0.909     0.495     0.414
     Fe    43      Dzx                  0.949     0.299     0.650
     Fe    43      Dxx-yy               0.932     0.354     0.578
     Fe    43      Dxy                  0.872     0.500     0.372
     Fe    43      S                    0.333     0.362    -0.029
     Fe    43      Px                   0.069     0.111    -0.041
     Fe    43      Py                   0.077     0.138    -0.061
     Fe    43      Pz                   0.074     0.136    -0.062
     Fe    44      Dzz                  0.901     0.455     0.446
     Fe    44      Dzy                  0.908     0.489     0.418
     Fe    44      Dzx                  0.950     0.300     0.650
     Fe    44      Dxx-yy               0.932     0.353     0.580
     Fe    44      Dxy                  0.870     0.503     0.367
     Fe    44      S                    0.331     0.359    -0.028
     Fe    44      Px                   0.069     0.109    -0.041
     Fe    44      Py                   0.076     0.135    -0.059
     Fe    44      Pz                   0.078     0.143    -0.064
     Fe    45      Dzz                  0.950     0.350     0.600
     Fe    45      Dzy                  0.944     0.431     0.513
     Fe    45      Dzx                  0.959     0.312     0.646
     Fe    45      Dxx-yy               0.927     0.370     0.557
     Fe    45      Dxy                  0.883     0.527     0.356
     Fe    45      S                    0.406     0.386     0.019
     Fe    45      Px                   0.080     0.090    -0.010
     Fe    45      Py                   0.119     0.178    -0.059
     Fe    45      Pz                   0.059     0.064    -0.005
     Fe    46      Dzz                  0.951     0.349     0.602
     Fe    46      Dzy                  0.942     0.439     0.503
     Fe    46      Dzx                  0.959     0.308     0.651
     Fe    46      Dxx-yy               0.927     0.367     0.561
     Fe    46      Dxy                  0.881     0.532     0.348
     Fe    46      S                    0.408     0.386     0.022
     Fe    46      Px                   0.079     0.088    -0.009
     Fe    46      Py                   0.119     0.178    -0.059
     Fe    46      Pz                   0.058     0.062    -0.005
     Fe    47      Dzz                  0.899     0.461     0.438
     Fe    47      Dzy                  0.904     0.494     0.410
     Fe    47      Dzx                  0.949     0.298     0.651
     Fe    47      Dxx-yy               0.931     0.357     0.574
     Fe    47      Dxy                  0.873     0.498     0.376
     Fe    47      S                    0.333     0.362    -0.029
     Fe    47      Px                   0.070     0.111    -0.041
     Fe    47      Py                   0.076     0.137    -0.060
     Fe    47      Pz                   0.075     0.137    -0.063
     Fe    48      Dzz                  0.950     0.348     0.602
     Fe    48      Dzy                  0.943     0.436     0.507
     Fe    48      Dzx                  0.959     0.312     0.646
     Fe    48      Dxx-yy               0.927     0.369     0.558
     Fe    48      Dxy                  0.881     0.528     0.353
     Fe    48      S                    0.406     0.387     0.019
     Fe    48      Px                   0.079     0.089    -0.010
     Fe    48      Py                   0.118     0.177    -0.060
     Fe    48      Pz                   0.059     0.065    -0.006
  ---------------------------------------------------------------
                           Total:     255.543   142.455   113.088
  ---------------------------------------------------------------
 
     Atomic Populations (Mulliken)
     -----------------------------
Species          Ion Spin      s       p       d       f      Total   Charge(e)   Spin(hbar/2)
==============================================================================================
  H               1   up:     0.577   0.000   0.000   0.000   0.577    -0.221       -0.067
                  1   dn:     0.644   0.000   0.000   0.000   0.644
  H               2   up:     0.568   0.000   0.000   0.000   0.568    -0.212       -0.077
                  2   dn:     0.645   0.000   0.000   0.000   0.645
  H               3   up:     0.654   0.000   0.000   0.000   0.654    -0.365       -0.056
                  3   dn:     0.710   0.000   0.000   0.000   0.710
  H               4   up:     0.568   0.000   0.000   0.000   0.568    -0.220       -0.084
                  4   dn:     0.652   0.000   0.000   0.000   0.652
  H               5   up:     0.596   0.000   0.000   0.000   0.596    -0.259       -0.067
                  5   dn:     0.663   0.000   0.000   0.000   0.663
  H               6   up:     0.594   0.000   0.000   0.000   0.594    -0.261       -0.074
                  6   dn:     0.667   0.000   0.000   0.000   0.667
  H               7   up:     0.615   0.000   0.000   0.000   0.615    -0.286       -0.057
                  7   dn:     0.671   0.000   0.000   0.000   0.671
  H               8   up:     0.597   0.000   0.000   0.000   0.597    -0.264       -0.069
                  8   dn:     0.667   0.000   0.000   0.000   0.667
  H               9   up:     0.603   0.000   0.000   0.000   0.603    -0.266       -0.059
                  9   dn:     0.663   0.000   0.000   0.000   0.663
  H              10   up:     0.606   0.000   0.000   0.000   0.606    -0.278       -0.067
                 10   dn:     0.673   0.000   0.000   0.000   0.673
  H              11   up:     0.602   0.000   0.000   0.000   0.602    -0.271       -0.068
                 11   dn:     0.669   0.000   0.000   0.000   0.669
  H              12   up:     0.600   0.000   0.000   0.000   0.600    -0.269       -0.069
                 12   dn:     0.669   0.000   0.000   0.000   0.669
  H              13   up:     0.599   0.000   0.000   0.000   0.599    -0.257       -0.058
                 13   dn:     0.657   0.000   0.000   0.000   0.657
  H              14   up:     0.595   0.000   0.000   0.000   0.595    -0.262       -0.072
                 14   dn:     0.667   0.000   0.000   0.000   0.667
  Fe              1   up:     0.290   0.132   4.485   0.000   4.908     0.438        2.254
                  1   dn:     0.259   0.127   2.268   0.000   2.654
  Fe              2   up:     0.338   0.230   4.558   0.000   5.126     0.036        2.288
                  2   dn:     0.359   0.385   2.095   0.000   2.838
  Fe              3   up:     0.335   0.198   4.506   0.000   5.038     0.224        2.301
                  3   dn:     0.309   0.233   2.196   0.000   2.738
  Fe              4   up:     0.331   0.196   4.523   0.000   5.050     0.247        2.348
                  4   dn:     0.306   0.230   2.167   0.000   2.703
  Fe              5   up:     0.333   0.254   4.589   0.000   5.176     0.004        2.356
                  5   dn:     0.355   0.414   2.051   0.000   2.820
  Fe              6   up:     0.339   0.227   4.563   0.000   5.129     0.036        2.293
                  6   dn:     0.362   0.387   2.086   0.000   2.835
  Fe              7   up:     0.333   0.207   4.548   0.000   5.088     0.243        2.419
                  7   dn:     0.303   0.233   2.133   0.000   2.669
  Fe              8   up:     0.331   0.207   4.526   0.000   5.064     0.229        2.357
                  8   dn:     0.306   0.237   2.164   0.000   2.707
  Fe              9   up:     0.338   0.224   4.558   0.000   5.120     0.046        2.285
                  9   dn:     0.361   0.379   2.095   0.000   2.834
  Fe             10   up:     0.339   0.229   4.566   0.000   5.134     0.038        2.306
                 10   dn:     0.361   0.386   2.082   0.000   2.828
  Fe             11   up:     0.329   0.196   4.479   0.000   5.004     0.215        2.222
                 11   dn:     0.307   0.242   2.232   0.000   2.781
  Fe             12   up:     0.333   0.251   4.588   0.000   5.173     0.008        2.353
                 12   dn:     0.357   0.411   2.052   0.000   2.820
  Fe             13   up:     0.329   0.224   4.550   0.000   5.102     0.243        2.447
                 13   dn:     0.297   0.233   2.125   0.000   2.655
  Fe             14   up:     0.347   0.261   4.587   0.000   5.195    -0.028        2.362
                 14   dn:     0.365   0.406   2.062   0.000   2.833
  Fe             15   up:     0.295   0.171   4.421   0.000   4.887     0.305        2.080
                 15   dn:     0.277   0.198   2.332   0.000   2.807
  Fe             16   up:     0.331   0.195   4.564   0.000   5.090     0.292        2.473
                 16   dn:     0.298   0.210   2.109   0.000   2.618
  Fe             17   up:     0.335   0.231   4.564   0.000   5.130     0.035        2.296
                 17   dn:     0.359   0.389   2.086   0.000   2.834
  Fe             18   up:     0.342   0.226   4.576   0.000   5.144     0.040        2.328
                 18   dn:     0.360   0.386   2.070   0.000   2.816
  Fe             19   up:     0.328   0.196   4.484   0.000   5.009     0.221        2.239
                 19   dn:     0.308   0.232   2.231   0.000   2.770
  Fe             20   up:     0.327   0.198   4.545   0.000   5.069     0.287        2.425
                 20   dn:     0.295   0.206   2.143   0.000   2.644
  Fe             21   up:     0.336   0.236   4.560   0.000   5.132     0.023        2.287
                 21   dn:     0.360   0.395   2.090   0.000   2.845
  Fe             22   up:     0.338   0.230   4.577   0.000   5.145     0.041        2.331
                 22   dn:     0.357   0.391   2.067   0.000   2.814
  Fe             23   up:     0.276   0.143   4.450   0.000   4.869     0.389        2.127
                 23   dn:     0.258   0.168   2.315   0.000   2.742
  Fe             24   up:     0.334   0.228   4.576   0.000   5.137     0.049        2.324
                 24   dn:     0.356   0.387   2.071   0.000   2.814
  Fe             25   up:     0.333   0.225   4.562   0.000   5.120     0.030        2.269
                 25   dn:     0.361   0.390   2.100   0.000   2.850
  Fe             26   up:     0.407   0.254   4.658   0.000   5.320    -0.034        2.605
                 26   dn:     0.387   0.330   1.997   0.000   2.715
  Fe             27   up:     0.332   0.223   4.560   0.000   5.115     0.039        2.268
                 27   dn:     0.359   0.386   2.101   0.000   2.846
  Fe             28   up:     0.332   0.225   4.564   0.000   5.121     0.030        2.272
                 28   dn:     0.361   0.391   2.097   0.000   2.849
  Fe             29   up:     0.407   0.256   4.662   0.000   5.325    -0.032        2.618
                 29   dn:     0.386   0.329   1.992   0.000   2.707
  Fe             30   up:     0.407   0.257   4.662   0.000   5.326    -0.035        2.617
                 30   dn:     0.386   0.331   1.992   0.000   2.709
  Fe             31   up:     0.332   0.220   4.556   0.000   5.108     0.037        2.254
                 31   dn:     0.361   0.386   2.108   0.000   2.854
  Fe             32   up:     0.332   0.223   4.559   0.000   5.114     0.035        2.263
                 32   dn:     0.360   0.387   2.103   0.000   2.851
  Fe             33   up:     0.405   0.258   4.662   0.000   5.325    -0.033        2.617
                 33   dn:     0.385   0.331   1.992   0.000   2.708
  Fe             34   up:     0.407   0.256   4.659   0.000   5.323    -0.034        2.612
                 34   dn:     0.386   0.330   1.995   0.000   2.711
  Fe             35   up:     0.332   0.222   4.560   0.000   5.113     0.039        2.265
                 35   dn:     0.360   0.385   2.102   0.000   2.848
  Fe             36   up:     0.407   0.257   4.663   0.000   5.326    -0.033        2.620
                 36   dn:     0.386   0.329   1.991   0.000   2.706
  Fe             37   up:     0.332   0.221   4.563   0.000   5.115     0.041        2.272
                 37   dn:     0.360   0.385   2.098   0.000   2.844
  Fe             38   up:     0.408   0.255   4.659   0.000   5.321    -0.033        2.610
                 38   dn:     0.386   0.328   1.997   0.000   2.711
  Fe             39   up:     0.333   0.221   4.554   0.000   5.108     0.036        2.252
                 39   dn:     0.361   0.384   2.111   0.000   2.856
  Fe             40   up:     0.331   0.223   4.563   0.000   5.117     0.037        2.271
                 40   dn:     0.360   0.389   2.097   0.000   2.846
  Fe             41   up:     0.406   0.256   4.659   0.000   5.321    -0.032        2.609
                 41   dn:     0.386   0.330   1.996   0.000   2.712
  Fe             42   up:     0.407   0.256   4.657   0.000   5.320    -0.035        2.605
                 42   dn:     0.387   0.330   1.998   0.000   2.715
  Fe             43   up:     0.333   0.220   4.561   0.000   5.114     0.036        2.264
                 43   dn:     0.362   0.384   2.104   0.000   2.850
  Fe             44   up:     0.331   0.223   4.561   0.000   5.115     0.039        2.269
                 44   dn:     0.359   0.387   2.099   0.000   2.846
  Fe             45   up:     0.406   0.258   4.663   0.000   5.327    -0.036        2.618
                 45   dn:     0.386   0.332   1.991   0.000   2.709
  Fe             46   up:     0.408   0.256   4.660   0.000   5.324    -0.033        2.614
                 46   dn:     0.386   0.328   1.995   0.000   2.710
  Fe             47   up:     0.333   0.221   4.557   0.000   5.110     0.035        2.256
                 47   dn:     0.362   0.385   2.108   0.000   2.854
  Fe             48   up:     0.406   0.256   4.660   0.000   5.322    -0.035        2.610
                 48   dn:     0.387   0.331   1.994   0.000   2.712
==============================================================================================
 
                 Bond                   Population        Spin       Length (A)
================================================================================
              H 3  -- Fe 1                   0.09         0.02          1.47168
              H 3  -- Fe 23                  0.09         0.01          1.55198
              H 2  -- Fe 15                  0.43         0.02          1.59398
              H 4  -- Fe 11                  0.42         0.01          1.61771
              H 1  -- H 4                    0.03         0.02          1.62376
              H 1  -- Fe 23                  0.38         0.01          1.63293
              H 7  -- Fe 1                   0.32         0.01          1.64397
              H 6  -- Fe 3                   0.37         0.01          1.66599
              H 3  -- Fe 15                  0.13        -0.00          1.67892
              H 2  -- Fe 13                  0.35         0.01          1.68126
[...]
             Fe 36 -- Fe 46                  0.36        -0.01          2.45553
             Fe 29 -- Fe 42                  0.36        -0.01          2.45554
             Fe 28 -- Fe 43                  0.24        -0.01          2.45579
             Fe 39 -- Fe 40                  0.24        -0.02          2.45586
             Fe 3  -- Fe 16                  0.14        -0.02          2.45611
             Fe 44 -- Fe 47                  0.24        -0.02          2.45621
             Fe 35 -- Fe 44                  0.24        -0.02          2.45632
             Fe 42 -- Fe 43                  0.02         0.03          2.45681
             Fe 9  -- Fe 18                  0.25        -0.01          2.45686
             Fe 28 -- Fe 39                  0.25        -0.02          2.45693
             Fe 32 -- Fe 47                  0.24        -0.02          2.45757
             Fe 27 -- Fe 40                  0.24        -0.02          2.45772
             Fe 46 -- Fe 47                  0.02         0.03          2.45803
              H 9  -- H 10                   0.01         0.00          2.45847
             Fe 9  -- Fe 32                  0.21        -0.00          2.45857
             Fe 38 -- Fe 39                  0.02         0.03          2.45869
             Fe 12 -- Fe 22                  0.23        -0.01          2.45879
             Fe 14 -- Fe 47                  0.20         0.00          2.45883
              H 11 -- H 12                   0.01         0.00          2.45898
             Fe 7  -- Fe 20                  0.12        -0.01          2.45906
             Fe 18 -- Fe 43                  0.20        -0.00          2.45924
             Fe 22 -- Fe 24                  0.23        -0.01          2.45985
             Fe 11 -- Fe 20                  0.22        -0.05          2.46029
             Fe 2  -- Fe 3                   0.13        -0.01          2.46077
             Fe 5  -- Fe 18                  0.23        -0.01          2.46089
             Fe 9  -- Fe 22                  0.24        -0.01          2.46105
             Fe 22 -- Fe 47                  0.19        -0.00          2.46106
             Fe 32 -- Fe 33                  0.02         0.03          2.46144
             Fe 30 -- Fe 31                  0.02         0.03          2.46150
             Fe 26 -- Fe 27                  0.02         0.03          2.46207
             Fe 6  -- Fe 7                   0.13        -0.01          2.46220
             Fe 37 -- Fe 48                  0.02         0.03          2.46294
             Fe 25 -- Fe 36                  0.02         0.03          2.46348
             Fe 5  -- Fe 6                   0.25        -0.01          2.46368
             Fe 6  -- Fe 31                  0.20        -0.00          2.46385
             Fe 17 -- Fe 18                  0.27        -0.01          2.46397
             Fe 34 -- Fe 35                  0.02         0.03          2.46397
             Fe 12 -- Fe 25                  0.20        -0.00          2.46439
             Fe 28 -- Fe 29                  0.02         0.03          2.46572
             Fe 40 -- Fe 41                  0.03         0.03          2.46588
             Fe 16 -- Fe 17                  0.11        -0.01          2.46621
              H 10 -- H 11                   0.01         0.00          2.46644
             Fe 44 -- Fe 45                  0.03         0.03          2.46685
             Fe 4  -- Fe 5                   0.13        -0.01          2.46892
             Fe 10 -- Fe 11                  0.14        -0.02          2.46948
             Fe 10 -- Fe 35                  0.21        -0.00          2.46976
             Fe 21 -- Fe 44                  0.22        -0.01          2.47122
             Fe 9  -- Fe 28                  0.21        -0.00          2.47219
             Fe 17 -- Fe 40                  0.21        -0.00          2.47401
             Fe 24 -- Fe 37                  0.20        -0.00          2.47489
             Fe 2  -- Fe 27                  0.21        -0.00          2.47518
             Fe 18 -- Fe 39                  0.20        -0.00          2.47528
             Fe 13 -- Fe 17                  0.13        -0.01          2.47624
             Fe 19 -- Fe 20                  0.11        -0.02          2.47652
             Fe 22 -- Fe 43                  0.21        -0.00          2.47696
             Fe 20 -- Fe 24                  0.15        -0.02          2.47767
             Fe 5  -- Fe 28                  0.21        -0.00          2.47791
             Fe 11 -- Fe 13                  0.21        -0.03          2.47796
             Fe 5  -- Fe 25                  0.21        -0.00          2.47899
             Fe 2  -- Fe 35                  0.21        -0.00          2.48071
             Fe 5  -- Fe 14                  0.31        -0.02          2.48198
             Fe 12 -- Fe 32                  0.21        -0.00          2.48228
             Fe 10 -- Fe 31                  0.21        -0.00          2.48391
             Fe 6  -- Fe 27                  0.21        -0.00          2.48415
             Fe 17 -- Fe 37                  0.21        -0.00          2.48492
              H 2  -- H 8                    0.02         0.00          2.48564
             Fe 21 -- Fe 40                  0.21        -0.00          2.48914
             Fe 24 -- Fe 44                  0.22        -0.01          2.49397
             Fe 13 -- Fe 23                  0.10        -0.03          2.49539
             Fe 12 -- Fe 14                  0.30        -0.02          2.49578
             Fe 13 -- Fe 15                  0.23        -0.05          2.49847
             Fe 13 -- Fe 24                  0.10        -0.01          2.50056
              H 1  -- H 3                   -0.01         0.00          2.50057
              H 5  -- H 7                    0.01         0.00          2.50501
             Fe 20 -- Fe 21                  0.13        -0.01          2.50682
              H 10 -- H 13                   0.01         0.00          2.50755
              H 7  -- H 8                    0.01         0.00          2.51131
              H 10 -- H 14                   0.00         0.00          2.51930
             Fe 14 -- Fe 23                 -0.01        -0.00          2.51956
             Fe 1  -- Fe 5                   0.17        -0.02          2.52497
             Fe 14 -- Fe 15                  0.05        -0.01          2.53104
              H 2  -- Fe 23                  0.05        -0.01          2.55091
             Fe 1  -- Fe 12                  0.17        -0.02          2.55483
              H 13 -- Fe 8                   0.01        -0.00          2.57203
             Fe 1  -- Fe 15                 -0.10         0.00          2.57717
              H 4  -- H 10                   0.01         0.00          2.58753
             Fe 1  -- Fe 23                 -0.07        -0.01          2.58767
              H 6  -- H 9                    0.00         0.00          2.60705
              H 7  -- Fe 13                  0.01        -0.00          2.64291
              H 5  -- Fe 11                  0.01        -0.00          2.64587
              H 2  -- Fe 16                  0.00        -0.00          2.65421
              H 9  -- Fe 4                  -0.01         0.00          2.65608
              H 3  -- Fe 13                  0.04        -0.00          2.65893
              H 8  -- Fe 3                   0.00        -0.00          2.66613
              H 11 -- Fe 16                 -0.00        -0.00          2.70180
              H 10 -- Fe 19                 -0.00        -0.00          2.71259
              H 12 -- Fe 7                  -0.01         0.00          2.72511
              H 9  -- H 13                   0.00         0.00          2.73174
              H 14 -- Fe 20                 -0.03        -0.00          2.74206
              H 8  -- H 12                   0.01         0.00          2.74293
              H 4  -- H 13                  -0.00        -0.00          2.74473
             Fe 15 -- Fe 19                  0.09        -0.02          2.74531
              H 5  -- H 12                   0.00        -0.00          2.77393
              H 3  -- Fe 12                  0.01         0.00          2.77864
             Fe 4  -- Fe 8                   0.08        -0.02          2.78779
             Fe 9  -- Fe 19                  0.01         0.02          2.79150
             Fe 19 -- Fe 23                  0.09        -0.02          2.79504
             Fe 4  -- Fe 6                   0.00         0.02          2.79704
             Fe 14 -- Fe 37                  0.05         0.01          2.80038
              H 6  -- H 10                   0.01         0.00          2.80172
             Fe 19 -- Fe 21                 -0.01         0.02          2.80177
             Fe 1  -- Fe 2                   0.01         0.02          2.80228
             Fe 7  -- Fe 21                  0.03         0.01          2.80338
             Fe 8  -- Fe 10                  0.01         0.01          2.80472
             Fe 3  -- Fe 17                  0.03         0.02          2.80939
             Fe 5  -- Fe 15                  0.07         0.00          2.81032
             Fe 39 -- Fe 41                 -0.07         0.02          2.81084
             Fe 13 -- Fe 16                  0.05        -0.01          2.81212
              H 11 -- H 14                   0.00         0.00          2.81284
             Fe 47 -- Fe 48                 -0.06         0.02          2.81292
             Fe 43 -- Fe 45                 -0.07         0.02          2.81550
              H 1  -- H 5                    0.01         0.00          2.81876
              H 3  -- Fe 5                   0.00         0.00          2.82083
             Fe 9  -- Fe 31                  0.04         0.01          2.82143
             Fe 5  -- Fe 12                  0.15        -0.01          2.82155
             Fe 11 -- Fe 24                  0.01         0.02          2.82209
             Fe 3  -- Fe 7                   0.09        -0.02          2.82411
             Fe 40 -- Fe 44                  0.08         0.00          2.82466
             Fe 2  -- Fe 10                  0.16        -0.01          2.82508
             Fe 32 -- Fe 46                 -0.07         0.02          2.82521
             Fe 6  -- Fe 10                  0.14        -0.01          2.82530
             Fe 29 -- Fe 36                  0.36        -0.04          2.82554
             Fe 26 -- Fe 37                 -0.07         0.02          2.82594
             Fe 28 -- Fe 42                 -0.07         0.02          2.82597
             Fe 27 -- Fe 35                  0.08         0.00          2.82613
             Fe 32 -- Fe 34                 -0.07         0.02          2.82642
             Fe 28 -- Fe 30                 -0.07         0.02          2.82741
             Fe 12 -- Fe 35                  0.04         0.01          2.82754
             Fe 18 -- Fe 28                  0.05         0.01          2.82839
             Fe 39 -- Fe 47                  0.08         0.00          2.82846
             Fe 17 -- Fe 24                  0.16        -0.01          2.82853
             Fe 30 -- Fe 40                 -0.07         0.02          2.82895
             Fe 7  -- Fe 11                  0.08        -0.02          2.82931
             Fe 14 -- Fe 18                  0.14        -0.01          2.82960
             Fe 10 -- Fe 44                  0.05         0.01          2.82997
             Fe 26 -- Fe 34                  0.36        -0.04          2.83115
             Fe 26 -- Fe 30                  0.36        -0.04          2.83116
             Fe 34 -- Fe 44                 -0.07         0.02          2.83118
             Fe 25 -- Fe 38                 -0.07         0.02          2.83122
             Fe 25 -- Fe 26                 -0.07         0.02          2.83135
             Fe 25 -- Fe 32                  0.08         0.00          2.83150
             Fe 38 -- Fe 42                  0.37        -0.04          2.83159
             Fe 41 -- Fe 48                  0.36        -0.04          2.83159
             Fe 38 -- Fe 46                  0.37        -0.04          2.83164
             Fe 33 -- Fe 43                 -0.07         0.02          2.83174
             Fe 25 -- Fe 28                  0.08         0.00          2.83265
             Fe 5  -- Fe 27                  0.04         0.01          2.83301
              H 7  -- H 11                   0.00        -0.00          2.83312
             Fe 18 -- Fe 22                  0.16        -0.01          2.83322
             Fe 31 -- Fe 45                 -0.07         0.02          2.83327
             Fe 6  -- Fe 40                  0.04         0.01          2.83344
             Fe 31 -- Fe 33                 -0.07         0.02          2.83346
             Fe 9  -- Fe 12                  0.16        -0.01          2.83348
             Fe 41 -- Fe 45                  0.36        -0.04          2.83357
             Fe 45 -- Fe 48                  0.36        -0.04          2.83361
             Fe 35 -- Fe 48                 -0.07         0.02          2.83364
             Fe 43 -- Fe 47                  0.08         0.00          2.83379
             Fe 12 -- Fe 23                  0.06         0.00          2.83383
             Fe 17 -- Fe 21                  0.13        -0.01          2.83433
             Fe 28 -- Fe 32                  0.07         0.01          2.83462
             Fe 27 -- Fe 41                 -0.07         0.02          2.83495
             Fe 22 -- Fe 32                  0.04         0.01          2.83507
             Fe 13 -- Fe 20                 -0.03        -0.01          2.83516
             Fe 29 -- Fe 39                 -0.07         0.02          2.83524
             Fe 42 -- Fe 46                  0.36        -0.04          2.83555
             Fe 31 -- Fe 35                  0.08         0.00          2.83593
             Fe 21 -- Fe 24                  0.16        -0.01          2.83598
             Fe 37 -- Fe 44                  0.08         0.00          2.83621
             Fe 30 -- Fe 34                  0.36        -0.04          2.83645
             Fe 39 -- Fe 43                  0.08         0.00          2.83653
             Fe 29 -- Fe 33                  0.36        -0.04          2.83660
             Fe 33 -- Fe 36                  0.36        -0.04          2.83662
             Fe 27 -- Fe 31                  0.08         0.00          2.83671
             Fe 14 -- Fe 22                  0.11         0.00          2.83673
             Fe 35 -- Fe 36                 -0.07         0.02          2.83691
             Fe 27 -- Fe 29                 -0.07         0.02          2.83723
             Fe 36 -- Fe 47                 -0.07         0.02          2.83732
             Fe 37 -- Fe 40                  0.08         0.00          2.83790
             Fe 2  -- Fe 37                  0.04         0.01          2.83918
             Fe 22 -- Fe 44                  0.04         0.01          2.84018
             Fe 23 -- Fe 24                  0.03         0.01          2.84049
             Fe 18 -- Fe 40                  0.05         0.01          2.84157
             Fe 3  -- Fe 5                  -0.04         0.02          2.84197
             Fe 5  -- Fe 9                   0.15        -0.01          2.84384
              H 6  -- Fe 15                 -0.08         0.00          2.84422
             Fe 14 -- Fe 25                  0.05         0.01          2.84506
             Fe 40 -- Fe 42                 -0.07         0.02          2.84516
             Fe 3  -- Fe 11                  0.07        -0.02          2.84568
             Fe 44 -- Fe 46                 -0.07         0.02          2.84786
             Fe 2  -- Fe 6                   0.16        -0.01          2.84842
             Fe 8  -- Fe 22                 -0.07         0.02          2.84894
             Fe 16 -- Fe 18                 -0.02         0.01          2.85080
             Fe 37 -- Fe 38                 -0.07         0.02          2.85205
             Fe 16 -- Fe 20                  0.10        -0.02          2.85212
             Fe 11 -- Fe 12                 -0.05         0.02          2.85307
             Fe 1  -- Fe 4                   0.11        -0.03          2.85325
             Fe 15 -- Fe 17                  0.01         0.01          2.85535
              H 7  -- H 14                   0.00        -0.00          2.85631
             Fe 17 -- Fe 27                  0.04         0.01          2.86052
             Fe 6  -- Fe 16                 -0.04         0.02          2.86181
             Fe 9  -- Fe 43                  0.04         0.01          2.86227
             Fe 21 -- Fe 43                  0.03         0.01          2.86237
             Fe 13 -- Fe 14                  0.05         0.01          2.86277
             Fe 17 -- Fe 39                  0.02         0.01          2.86437
             Fe 4  -- Fe 18                 -0.08         0.03          2.86503
             Fe 24 -- Fe 47                  0.03         0.01          2.86667
             Fe 1  -- Fe 8                   0.10        -0.02          2.86668
             Fe 24 -- Fe 35                  0.03         0.01          2.86839
             Fe 6  -- Fe 28                  0.03         0.01          2.86957
             Fe 12 -- Fe 47                  0.03         0.01          2.86972
             Fe 20 -- Fe 22                 -0.04         0.02          2.87308
             Fe 7  -- Fe 9                  -0.05         0.02          2.87397
             Fe 5  -- Fe 39                  0.03         0.01          2.87415
             Fe 2  -- Fe 25                  0.04         0.01          2.87475
             Fe 10 -- Fe 32                  0.03         0.01          2.87546
             Fe 21 -- Fe 31                  0.03         0.01          2.87578
             Fe 2  -- Fe 13                 -0.08         0.02          2.88194
              H 1  -- Fe 11                 -0.14         0.01          2.88820
             Fe 10 -- Fe 20                 -0.04         0.02          2.89235
              H 13 -- Fe 22                 -0.16         0.02          2.91972
              H 9  -- Fe 18                 -0.18         0.02          2.95580
             Fe 15 -- Fe 23                 -0.09        -0.01          2.95964
              H 10 -- Fe 21                 -0.15         0.02          2.96096
              H 12 -- Fe 9                  -0.17         0.02          2.96800
              H 11 -- Fe 6                  -0.16         0.02          2.97022
              H 8  -- Fe 5                  -0.16         0.02          2.97946
              H 14 -- Fe 10                 -0.16         0.02          2.98132
              H 5  -- H 8                    0.00        -0.00          2.98404
              H 7  -- Fe 2                  -0.16         0.02          2.98539
              H 5  -- Fe 12                 -0.16         0.02          2.98876
              H 4  -- Fe 7                   0.01        -0.00          2.99957
================================================================================
 

Writing analysis data to neb-calc_1-5.castep_bin

Writing model to neb-calc_1-5.check
 
 A BibTeX formatted list of references used in this run has been written to 
 neb-calc_1-5.bib
 
Initialisation time =     10.20 s
Calculation time    =  19581.84 s
Finalisation time   =      6.50 s
Total time          =  19598.54 s
Peak Memory Use     = 2110896 kB
  
Overall parallel efficiency rating: Very good (89%)                             
  
Data was distributed by:-
G-vector (16-way); efficiency rating: Excellent (90%)                           
k-point (8-way); efficiency rating: Ideal (100%)                                
