62
Lattice="8.012711 0.0 0.0 0.0 8.498763 0.0 0.0 0.0 18.0" Properties=species:S:1:pos:R:3:initial_magmoms:R:1:initial_charges:R:1:forces:R:3 energy=-41627.51504466 pbc="T T T"
H        2.97498338       3.69574658       3.96811800      -0.07500000      -0.20600000       0.01384000       0.01371000      -0.00840000
H        3.06654463       5.97259069       3.88418400      -0.08000000      -0.19400000      -0.00816000      -0.00224000      -0.00988000
H        4.57436857       4.90505257       4.26213000      -0.06400000      -0.23000000      -0.00859000       0.00449000      -0.01889000
H        1.34222525       3.54104360       3.99362400      -0.07700000      -0.24500000       0.01120000      -0.01621000      -0.00634000
H        5.67326381       3.40421351       4.15596600      -0.06700000      -0.25400000      -0.00243000      -0.01208000      -0.01493000
H        1.39272135       6.34291578       4.04321400      -0.07500000      -0.25200000      -0.00211000      -0.02298000       0.00215000
H        7.59887050       4.90648886       4.14765000      -0.06500000      -0.27000000      -0.00291000       0.01826000      -0.00739000
H        5.67037122       6.41433089       4.15661400      -0.06900000      -0.25400000       0.01115000       0.00102000       0.00401000
H        3.70086288       7.81496953       4.14777600      -0.06000000      -0.25500000       0.00397000      -0.00822000       0.03249000
H        1.58474597       0.66586108       4.07757600      -0.06700000      -0.28100000      -0.00342000       0.00617000       0.02058000
H        7.59226803       7.76126584       4.13143200      -0.06800000      -0.27000000       0.00218000      -0.00447000       0.00735000
H        5.57016426       0.66473075       4.14741600      -0.06800000      -0.26800000       0.00416000      -0.00300000      -0.00194000
H        3.72919583       2.00906508       4.14991800      -0.05900000      -0.25000000      -0.00619000       0.00717000       0.03093000
H        7.59881441       2.06273477       4.13262000      -0.06800000      -0.27000000       0.00296000      -0.00242000       0.00938000
Fe       6.11787312       4.89432713       5.02561800       2.35600000       0.26100000       0.03861000       0.24146000      -0.00389000
Fe       0.11853203       4.89118259       7.03715400       2.28900000       0.03900000      -0.00739000       0.11326000      -0.01271000
Fe       0.09934159       6.33443402       5.05215000       2.28500000       0.21800000      -0.00973000      -0.06908000       0.00971000
Fe       6.15203130       7.78547032       5.07045600       2.32600000       0.25200000      -0.00944000      -0.07283000       0.00534000
Fe       6.12581371       6.30787538       7.04763000       2.28800000       0.04000000      -0.00703000      -0.00838000      -0.00919000
Fe       0.12597584       7.73120572       7.04361600       2.29700000       0.03500000      -0.01977000      -0.08810000      -0.00515000
Fe       0.15231362       0.66019241       5.03838000       2.36100000       0.22800000       0.02964000       0.06979000      -0.00701000
Fe       6.15638220       2.03899772       5.07470400       2.32800000       0.25800000       0.00550000      -0.01132000       0.00923000
Fe       6.13635844       0.64350084       7.07185800       2.28600000       0.05200000      -0.00839000       0.10745000       0.04884000
Fe       0.12781877       2.06422205       7.04269800       2.30200000       0.03800000      -0.01747000      -0.02885000      -0.00940000
Fe       0.10052747       3.48952410       5.04613800       2.23800000       0.21500000      -0.03379000      -0.01585000       0.02169000
Fe       6.13013256       3.48603111       7.05303000       2.27800000       0.04200000      -0.01265000      -0.08143000       0.00616000
Fe       2.13564389       4.91458818       4.91488200       2.44400000       0.26800000      -0.00032000       0.03367000       0.02443000
Fe       4.11862159       4.89427614       7.02842400       2.34500000       0.03200000      -0.00295000       0.10436000       0.01997000
Fe       4.14680230       6.37778621       5.01062400       2.00500000       0.23400000      -0.00473000      -0.17803000       0.01117000
Fe       2.12925776       7.74090281       4.98663000       2.55600000       0.29900000       0.00716000      -0.00538000      -0.00953000
Fe       2.12053993       6.30122935       7.00432200       2.32700000       0.03900000      -0.00131000      -0.00790000      -0.01691000
Fe       4.12225135       7.73109523       7.05699000       2.32800000       0.04400000       0.00517000      -0.09531000       0.00597000
Fe       4.14437445       0.66830023       5.10154200       2.18400000       0.19900000      -0.03040000      -0.14107000      -0.01094000
Fe       2.13168561       2.11200210       4.96063800       2.58600000       0.30400000       0.02120000      -0.12652000      -0.01669000
Fe       2.12369694       0.64689184       7.00997400       2.27700000       0.01200000      -0.01214000       0.13109000       0.01286000
Fe       4.12312474       2.06692466       7.06411800       2.32700000       0.05500000      -0.00592000      -0.03452000       0.00783000
Fe       4.16108095       3.44584046       5.04027000       2.01500000       0.24900000      -0.03835000      -0.10283000      -0.03661000
Fe       2.11967456       3.49079041       7.00482600       2.33000000       0.04100000      -0.00353000      -0.06024000      -0.01381000
Fe       6.11295331       4.88229288       9.06802200       2.25200000       0.03600000       0.01390000       0.06181000       0.03178000
Fe       0.10911710       4.86294120      11.05988400       2.60000000      -0.03500000       0.01210000       0.06885000       0.00701000
Fe       0.10496651       6.29516973       9.06391800       2.25600000       0.04300000       0.01379000       0.01146000      -0.00239000
Fe       6.11319369       7.71125062       9.07977600       2.26700000       0.03400000       0.01260000      -0.08033000       0.00760000
Fe       6.11774491       6.27573306      11.07331200       2.61400000      -0.03200000      -0.00690000       0.04510000      -0.02194000
Fe       0.10809948       7.69408312      11.05979400       2.60800000      -0.03600000       0.01003000      -0.03859000       0.00788000
Fe       0.10753058       0.63294537       9.06854400       2.25200000       0.03500000       0.00733000       0.06428000       0.00921000
Fe       6.11403503       2.05180536       9.08042400       2.26500000       0.03600000       0.00625000       0.02208000       0.01465000
Fe       6.11780901       0.61356819      11.07070200       2.60600000      -0.03300000       0.00615000       0.06946000       0.02997000
Fe       0.10809948       2.03179077      11.05983000       2.60400000      -0.03500000       0.00915000       0.05200000       0.01755000
Fe       0.10590400       3.46953501       9.06602400       2.25400000       0.04000000       0.00955000      -0.08271000      -0.00467000
Fe       6.11772889       3.45019182      11.07334800       2.61500000      -0.03300000      -0.00202000      -0.02747000      -0.01642000
Fe       2.10528373       4.88184244       9.04642200       2.26500000       0.04200000       0.01535000       0.06910000       0.00545000
Fe       4.11234764       4.86297519      11.07419400       2.61100000      -0.03500000      -0.01787000       0.07128000      -0.05641000
Fe       4.10746790       6.29037643       9.06624000       2.26100000       0.03900000       0.00964000       0.01974000       0.00327000
Fe       2.10844875       7.71578046       9.04847400       2.27400000       0.03600000       0.01002000      -0.07986000      -0.00789000
Fe       2.11021956       6.27875012      11.05635600       2.61100000      -0.03300000      -0.00297000       0.04961000      -0.03617000
Fe       4.11360564       7.69453356      11.06816400       2.61100000      -0.03400000      -0.01378000      -0.06129000      -0.00089000
Fe       4.10954319       0.63251194       9.08155800       2.26200000       0.03900000       0.01457000       0.07451000       0.00442000
Fe       2.10893752       2.04712254       9.04960800       2.27100000       0.03700000       0.00995000       0.02651000      -0.01225000
Fe       2.11036379       0.61356819      11.06037000       2.62200000      -0.03600000      -0.00578000       0.06312000      -0.04126000
Fe       4.11360564       2.03134884      11.06814600       2.61300000      -0.03200000      -0.01646000       0.06941000       0.02466000
Fe       4.10803680       3.47578160       9.07135200       2.25800000       0.03900000       0.01179000      -0.07992000      -0.00067000
Fe       2.11023558       3.44717476      11.05637400       2.61100000      -0.03500000      -0.00399000      -0.04082000      -0.03292000
62
Lattice="8.012711 0.0 0.0 0.0 8.498763 0.0 0.0 0.0 18.0" Properties=species:S:1:pos:R:3:initial_magmoms:R:1:initial_charges:R:1:forces:R:3 energy=-41627.43908216 pbc="T T T"
H        2.94020804       3.67432378       3.99011056      -0.07300000      -0.21200000       0.06577000       0.03095000      -0.01580000
H        3.12761328       5.87077071       3.89997353      -0.08000000      -0.19900000      -0.06378000       0.01592000      -0.14734000
H        4.63343963       4.88803236       4.44425201      -0.06200000      -0.28300000      -0.39623000       0.20503000      -0.50287000
H        1.32583020       3.44994592       3.97210041      -0.07900000      -0.23700000       0.05183000       0.04359000       0.02493000
H        5.67065670       3.40681235       4.13969879      -0.06700000      -0.25300000      -0.00335000       0.01018000       0.01417000
H        1.41751272       6.34410563       4.04868101      -0.07500000      -0.25500000       0.01248000      -0.01783000       0.01354000
H        7.61746920       4.90952590       4.12743136      -0.06300000      -0.27100000       0.04845000       0.00361000      -0.01147000
H        5.66575651       6.41471105       4.14098560      -0.07000000      -0.25600000       0.00441000      -0.03040000       0.00970000
H        3.69186576       7.80374609       4.14537221      -0.06000000      -0.25800000      -0.00136000      -0.01432000       0.02049000
H        1.59656050       0.66080864       4.08241774      -0.06700000      -0.28100000      -0.01021000       0.00796000       0.01173000
H        7.59672884       7.75813012       4.12533572      -0.06800000      -0.27100000       0.00464000      -0.00362000       0.01038000
H        5.57471206       0.66088664       4.14435375      -0.06800000      -0.26800000       0.00195000      -0.00330000      -0.00360000
H        3.73110697       2.00754595       4.15298467      -0.05900000      -0.25000000       0.00384000      -0.00738000       0.02640000
H        7.58787453       2.06275557       4.12519202      -0.06900000      -0.26800000       0.01200000      -0.00167000       0.02300000
Fe       6.15363499       4.90009735       5.01155651       2.31700000       0.29300000       0.30075000       0.18124000       0.30424000
Fe       0.11780770       4.89125543       7.03297182       2.28800000       0.04000000      -0.01109000       0.11714000      -0.00103000
Fe       0.10770912       6.33258649       5.04611904       2.29200000       0.22000000       0.02687000      -0.02719000       0.00851000
Fe       6.15525794       7.77798183       5.06364950       2.32800000       0.25200000      -0.00538000      -0.05372000       0.00276000
Fe       6.12639024       6.30539462       7.04399148       2.30300000       0.03600000      -0.01204000      -0.01540000      -0.01641000
Fe       0.12395378       7.73066524       7.04040167       2.29500000       0.03500000      -0.01505000      -0.08694000      -0.00386000
Fe       0.15250062       0.65969453       5.03347620       2.37800000       0.23200000       0.02583000       0.07547000      -0.00301000
Fe       6.15424364       2.04108607       5.06823154       2.33300000       0.25200000       0.00003000      -0.04197000      -0.00130000
Fe       6.13537992       0.64530057       7.06746948       2.28700000       0.05000000      -0.00557000       0.10159000       0.04084000
Fe       0.12646485       2.06272463       7.03880184       2.30300000       0.03800000      -0.01204000      -0.02808000      -0.01090000
Fe       0.10544670       3.48669907       5.03754640       2.22500000       0.21600000      -0.04360000      -0.07229000       0.03742000
Fe       6.13014674       3.48334690       7.04964692       2.29500000       0.03900000      -0.03082000      -0.03847000      -0.02314000
Fe       2.13637386       4.91551414       4.93019050       2.45300000       0.25000000       0.00287000      -0.04883000      -0.02068000
Fe       4.11009848       4.89653412       7.03958813       2.35200000       0.00100000       0.11747000       0.07466000      -0.04787000
Fe       4.15099933       6.38358597       5.02312288       2.02000000       0.27200000       0.00034000      -0.01185000       0.14651000
Fe       2.13251240       7.74008881       4.99287605       2.54000000       0.30100000      -0.02484000       0.04056000       0.01681000
Fe       2.11758005       6.30346603       7.00866826       2.31800000       0.03800000      -0.00962000      -0.00965000      -0.01893000
Fe       4.12307728       7.72921736       7.05748646       2.32900000       0.04400000       0.00644000      -0.07628000       0.02271000
Fe       4.14673059       0.65875214       5.09699359       2.19600000       0.20400000      -0.02270000      -0.12853000      -0.00304000
Fe       2.13615208       2.10377540       4.96107979       2.55000000       0.29800000      -0.01014000      -0.10538000      -0.04211000
Fe       2.12315928       0.64834251       7.01125024       2.27900000       0.01400000      -0.01426000       0.12714000       0.00687000
Fe       4.12268920       2.06520715       7.06126455       2.33100000       0.05400000      -0.00143000      -0.03722000       0.01228000
Fe       4.15759687       3.43689186       5.04407765       2.03600000       0.30300000      -0.05056000      -0.47672000       0.19277000
Fe       2.11752873       3.48736587       7.00681427       2.32800000       0.04300000      -0.01372000      -0.06211000      -0.01268000
Fe       6.11238533       4.88274588       9.06810391       2.25600000       0.03500000       0.01956000       0.05937000       0.00845000
Fe       0.10922186       4.86392448      11.05994091       2.60100000      -0.03500000       0.00735000       0.06862000       0.00409000
Fe       0.10398571       6.29515193       9.06188641       2.25900000       0.04200000       0.01173000       0.01413000      -0.00351000
Fe       6.11305230       7.71069721       9.07728257       2.26800000       0.03300000       0.01216000      -0.08170000       0.00987000
Fe       6.11764242       6.27645819      11.07296674       2.61500000      -0.03200000      -0.00714000       0.05054000      -0.02401000
Fe       0.10818628       7.69356266      11.05986870       2.61100000      -0.03600000       0.00555000      -0.03635000       0.00533000
Fe       0.10630328       0.63371311       9.06664018       2.25300000       0.03600000       0.00671000       0.06583000       0.00538000
Fe       6.11360009       2.05145265       9.07818106       2.26500000       0.03600000       0.00503000       0.02280000       0.01436000
Fe       6.11788938       0.61455927      11.07100857       2.60800000      -0.03400000       0.00562000       0.06915000       0.02156000
Fe       0.10817359       2.03254572      11.06003379       2.60600000      -0.03500000       0.00520000       0.05269000       0.01436000
Fe       0.10480697       3.46801927       9.06374845       2.25700000       0.04000000       0.00716000      -0.08114000      -0.00483000
Fe       6.11769400       3.44976040      11.07306612       2.61700000      -0.03400000      -0.00243000      -0.03007000      -0.01954000
Fe       2.10392822       4.88262169       9.04842649       2.26700000       0.04200000       0.01689000       0.07220000      -0.00109000
Fe       4.11204229       4.86397082      11.07366508       2.61000000      -0.03400000      -0.02131000       0.07007000      -0.03692000
Fe       4.10699499       6.29211732       9.06906044       2.25900000       0.03800000       0.00997000       0.01433000       0.00370000
Fe       2.10726848       7.71546026       9.04998646       2.27300000       0.03700000       0.01004000      -0.08079000      -0.01197000
Fe       2.11010737       6.27949973      11.05604076       2.61000000      -0.03300000      -0.00776000       0.05168000      -0.02325000
Fe       4.11342774       7.69382293      11.06825607       2.61000000      -0.03500000      -0.01242000      -0.04972000       0.00648000
Fe       4.10922489       0.63388949       9.08034532       2.26400000       0.03900000       0.01152000       0.07147000       0.01823000
Fe       2.10756950       2.04685915       9.04984820       2.27000000       0.03700000       0.01263000       0.02721000      -0.01201000
Fe       2.11023421       0.61452026      11.05991454       2.62100000      -0.03600000      -0.00901000       0.06639000      -0.03173000
Fe       4.11337635       2.03226146      11.06851611       2.61300000      -0.03300000      -0.01656000       0.06431000       0.02592000
Fe       4.10739942       3.47248928       9.07184112       2.25800000       0.03800000       0.01013000      -0.07451000      -0.00507000
Fe       2.11010878       3.44656690      11.05603301       2.61100000      -0.03500000      -0.00881000      -0.04240000      -0.02379000
62
Lattice="8.012711 0.0 0.0 0.0 8.498763 0.0 0.0 0.0 18.0" Properties=species:S:1:pos:R:3:initial_magmoms:R:1:initial_charges:R:1:forces:R:3 energy=-41627.27726895 pbc="T T T"
H        2.90642652       3.65400706       4.01141745      -0.07100000      -0.21600000       0.07947000       0.03745000      -0.02743000
H        3.18729372       5.77216915       3.91602073      -0.07900000      -0.20400000      -0.10654000       0.01746000      -0.24497000
H        4.68209732       4.87614404       4.63310597      -0.05900000      -0.32600000      -0.86042000       0.45729000      -0.62276000
H        1.30954017       3.36295363       3.95121774      -0.08100000      -0.23100000       0.05936000       0.08405000       0.02802000
H        5.66711204       3.41048391       4.12282777      -0.06800000      -0.25400000      -0.00846000       0.03677000       0.04077000
H        1.44181470       6.34548824       4.05378884      -0.07400000      -0.25700000       0.02593000      -0.01170000       0.02314000
H        7.63607060       4.91226516       4.10745796      -0.06100000      -0.27400000       0.12553000      -0.00799000      -0.04750000
H        5.65972897       6.41361450       4.12518634      -0.07000000      -0.25800000      -0.00809000      -0.06673000       0.02105000
H        3.68304990       7.79282166       4.14244046      -0.05900000      -0.26100000      -0.00806000      -0.01516000       0.00338000
H        1.60789189       0.65586328       4.08679715      -0.06700000      -0.28000000      -0.01797000       0.01033000       0.00626000
H        7.60093962       7.75509917       4.11944612      -0.06800000      -0.27100000       0.00961000      -0.00284000       0.01679000
H        5.57900819       0.65721623       4.14148607      -0.06900000      -0.26800000       0.00091000      -0.00414000      -0.00274000
H        3.73292505       2.00603381       4.15517596      -0.05900000      -0.25100000       0.00995000      -0.02416000       0.00994000
H        7.57735209       2.06283455       4.11803737      -0.07000000      -0.26500000       0.02042000      -0.00242000       0.03956000
Fe       6.19805256       4.90317272       4.99466572       2.28600000       0.33500000       0.55474000       0.13014000       0.49081000
Fe       0.11730860       4.88977403       7.02930367       2.28700000       0.04000000      -0.01017000       0.12130000       0.02047000
Fe       0.11631940       6.33212855       5.04023272       2.29700000       0.22300000       0.08947000       0.03380000       0.01277000
Fe       6.15836999       7.77163585       5.05694563       2.33300000       0.25000000      -0.00461000      -0.04376000      -0.00379000
Fe       6.12712191       6.30323065       7.04069559       2.32100000       0.02900000      -0.01191000      -0.01853000      -0.02113000
Fe       0.12230864       7.73135641       7.03747412       2.29400000       0.03600000      -0.00811000      -0.08323000       0.00039000
Fe       0.15223785       0.65824935       5.02898073       2.39300000       0.23500000       0.01921000       0.07948000       0.00701000
Fe       6.15203539       2.04343976       5.06177686       2.33900000       0.24500000      -0.00912000      -0.05954000      -0.01712000
Fe       6.13450909       0.64554936       7.06267656       2.28700000       0.04800000      -0.00701000       0.09715000       0.03695000
Fe       0.12541790       2.06165982       7.03525101       2.30400000       0.03800000      -0.00660000      -0.02999000      -0.00914000
Fe       0.11156351       3.48412751       5.02876748       2.21800000       0.21800000      -0.01374000      -0.14271000       0.05193000
Fe       6.13043024       3.48181128       7.04638257       2.31300000       0.03200000      -0.04140000      -0.00241000      -0.04585000
Fe       2.13740979       4.91704843       4.94438279       2.45500000       0.23800000       0.03269000      -0.07857000      -0.04793000
Fe       4.10193566       4.89726831       7.04997602       2.35900000      -0.02900000       0.23143000       0.04530000      -0.13495000
Fe       4.15405717       6.39116490       5.03110413       2.03700000       0.29900000       0.02476000       0.06744000       0.19256000
Fe       2.13568984       7.73907831       4.99881158       2.52000000       0.30000000      -0.04830000       0.07785000       0.03178000
Fe       2.11481114       6.30573336       7.01300696       2.30900000       0.03600000      -0.01646000      -0.01051000      -0.02078000
Fe       4.12379892       7.72869807       7.05788575       2.32800000       0.04300000       0.00742000      -0.05870000       0.03910000
Fe       4.14946275       0.65142031       5.09291857       2.21000000       0.21000000      -0.00952000      -0.12454000       0.01459000
Fe       2.13997962       2.09750002       4.96190133       2.51000000       0.29400000      -0.04869000      -0.10078000      -0.05398000
Fe       2.12280416       0.64789206       7.01235355       2.28200000       0.01700000      -0.01684000       0.12180000       0.00582000
Fe       4.12235719       2.06402990       7.05839718       2.33100000       0.05200000       0.00406000      -0.03979000       0.01582000
Fe       4.15212780       3.42642149       5.04465042       2.05900000       0.34800000      -0.05089000      -0.80203000       0.32053000
Fe       2.11551437       3.48490839       7.00891561       2.32600000       0.04400000      -0.02427000      -0.06523000      -0.01062000
Fe       6.11162802       4.88232194       9.06785236       2.26100000       0.03300000       0.02324000       0.05727000      -0.00629000
Fe       0.10914323       4.86390845      11.05977582       2.60200000      -0.03500000       0.00199000       0.06844000      -0.00736000
Fe       0.10286292       6.29497372       9.06005908       2.26200000       0.04000000       0.01042000       0.01625000      -0.00055000
Fe       6.11275436       7.71127016       9.07488594       2.26900000       0.03200000       0.01144000      -0.08259000       0.01674000
Fe       6.11763107       6.27653223      11.07281025       2.61600000      -0.03200000      -0.00797000       0.05589000      -0.03623000
Fe       0.10811774       7.69361235      11.05970484       2.61300000      -0.03500000       0.00140000      -0.03371000      -0.00603000
Fe       0.10504508       0.63358167       9.06479814       2.25400000       0.03600000       0.00666000       0.06785000       0.00750000
Fe       6.11312242       2.05080125       9.07590966       2.26400000       0.03600000       0.00366000       0.02223000       0.01986000
Fe       6.11787054       0.61455162      11.07073755       2.61100000      -0.03400000       0.00434000       0.06893000       0.00294000
Fe       0.10812725       2.03253032      11.05985616       2.60800000      -0.03500000       0.00202000       0.05248000       0.00203000
Fe       0.10361315       3.46771521       9.06166882       2.25900000       0.03900000       0.00539000      -0.07979000      -0.00276000
Fe       6.11767742       3.44972181      11.07289145       2.61800000      -0.03300000      -0.00356000      -0.03289000      -0.03176000
Fe       2.10243406       4.88240072       9.05034081       2.26800000       0.04100000       0.01873000       0.07406000      -0.00309000
Fe       4.11204494       4.86393750      11.07371009       2.61000000      -0.03400000      -0.02120000       0.06813000      -0.03543000
Fe       4.10641346       6.29350889       9.07174114       2.25700000       0.03700000       0.01049000       0.00940000       0.00767000
Fe       2.10598097       7.71623646       9.05165501       2.27200000       0.03700000       0.00971000      -0.08081000      -0.00957000
Fe       2.11003008       6.27952237      11.05607885       2.61000000      -0.03300000      -0.01259000       0.05350000      -0.02087000
Fe       4.11344779       7.69401536      11.06821742       2.60900000      -0.03500000      -0.01111000      -0.03789000       0.00370000
Fe       4.10870987       0.63418037       9.07918636       2.26400000       0.03800000       0.00814000       0.06801000       0.03336000
Fe       2.10609437       2.04623436       9.05033349       2.27000000       0.03800000       0.01513000       0.02724000      -0.00646000
Fe       2.11018911       0.61456297      11.05990192       2.62000000      -0.03600000      -0.01217000       0.06966000      -0.03291000
Fe       4.11338050       2.03218652      11.06840788       2.61300000      -0.03300000      -0.01636000       0.05945000       0.01843000
Fe       4.10662142       3.47044316       9.07236779       2.25800000       0.03600000       0.00779000      -0.06965000      -0.00656000
Fe       2.11004273       3.44655184      11.05603545       2.61000000      -0.03500000      -0.01339000      -0.04363000      -0.02513000
62
Lattice="8.012711 0.0 0.0 0.0 8.498763 0.0 0.0 0.0 18.0" Properties=species:S:1:pos:R:3:initial_magmoms:R:1:initial_charges:R:1:forces:R:3 energy=-41627.10591794 pbc="T T T"
H        2.87423086       3.63522732       4.03141848      -0.06900000      -0.21900000       0.06103000       0.03857000      -0.04463000
H        3.24505141       5.67860488       3.93256954      -0.07800000      -0.20800000      -0.11246000      -0.00117000      -0.30764000
H        4.72708382       4.86560145       4.82941569      -0.05700000      -0.35400000      -1.25253000       0.68190000      -0.32841000
H        1.29405118       3.28082751       3.93182094      -0.08300000      -0.22500000       0.04616000       0.07210000       0.01153000
H        5.66190166       3.41646965       4.10665091      -0.06800000      -0.25600000      -0.00978000       0.05645000       0.05649000
H        1.46486174       6.34681652       4.05852167      -0.07400000      -0.25900000       0.03801000      -0.00391000       0.03061000
H        7.65421933       4.91475561       4.08792622      -0.05900000      -0.27900000       0.22952000      -0.01638000      -0.12373000
H        5.65248119       6.41045526       4.11042133      -0.07000000      -0.26100000      -0.01879000      -0.09617000       0.02465000
H        3.67477668       7.78235577       4.13960741      -0.05900000      -0.26400000      -0.01516000      -0.01277000      -0.01996000
H        1.61847175       0.65131382       4.09091737      -0.06700000      -0.27900000      -0.02515000       0.01337000       0.00077000
H        7.60486410       7.75223559       4.11392512      -0.06800000      -0.27100000       0.01619000      -0.00366000       0.02164000
H        5.58301492       0.65375823       4.13880786      -0.06900000      -0.26800000       0.00089000      -0.00490000      -0.00274000
H        3.73457920       2.00470979       4.15695591      -0.05800000      -0.25400000       0.01399000      -0.04384000      -0.02022000
H        7.56746850       2.06299031       4.11133385      -0.07100000      -0.26300000       0.02722000      -0.00251000       0.05297000
Fe       6.24054583       4.90744541       4.96960541       2.26600000       0.38700000       0.60782000       0.08997000       0.51487000
Fe       0.11687338       4.88840473       7.02588071       2.28600000       0.03800000      -0.00719000       0.12558000       0.04117000
Fe       0.12468626       6.33195886       5.03471529       2.30000000       0.22600000       0.16287000       0.10752000       0.01916000
Fe       6.16122373       7.76543155       5.05057147       2.33900000       0.24900000      -0.00270000      -0.04682000      -0.01329000
Fe       6.12794149       6.30132023       7.03759162       2.33900000       0.01800000      -0.00325000      -0.01488000      -0.02694000
Fe       0.12081314       7.73198698       7.03475135       2.29400000       0.03600000       0.00015000      -0.07970000       0.00488000
Fe       0.15193324       0.65692171       5.02478534       2.40600000       0.23800000       0.01015000       0.08315000       0.01594000
Fe       6.14979047       2.04596337       5.05553200       2.34700000       0.23700000      -0.01672000      -0.06147000      -0.04116000
Fe       6.13363516       0.64580838       7.05820545       2.28600000       0.04700000      -0.01186000       0.09376000       0.03393000
Fe       0.12443955       2.06068737       7.03193516       2.30500000       0.03800000      -0.00155000      -0.03019000      -0.00733000